
Host: Jeffs-MacBook-Pro.local

Timers On : Mon Mar 23 09:21:04 2015
Timers Off: Mon Mar 23 09:21:05 2015

Wall Time:        1.00 seconds

JK: (A|mn)  :       0.00u       0.00s       0.00w      1 call
JK: (A|Q)^-1/2:       0.02u       0.00s       0.00w      1 call
JK: (Q|mn)  :       0.00u       0.00s       0.00w      1 call
Form H      :       0.00u       0.05s       0.00w      1 call
Form S/X    :       0.00u       0.00s       0.00w      1 call
Guess       :       0.00u       0.00s       0.00w      1 call
Form G      :       0.02u       0.12s       0.00w     13 calls
JK: D       :       0.00u       0.00s       0.00w     13 calls
JK: USO2AO  :       0.00u       0.00s       0.00w      8 calls
JK: JK      :       0.02u       0.12s       0.00w     13 calls
JK: J       :       0.00u       0.00s       0.00w      8 calls
JK: J1      :       0.00u       0.00s       0.00w      8 calls
JK: J2      :       0.00u       0.00s       0.00w      8 calls
JK: K       :       0.00u       0.00s       0.00w      8 calls
JK: K1      :       0.00u       0.00s       0.00w      8 calls
JK: K2      :       0.00u       0.00s       0.00w      8 calls
JK: AO2USO  :       0.00u       0.00s       0.00w      8 calls
Form F      :       0.00u       0.00s       0.00w     13 calls
DIIS        :       0.00u       0.02s       0.00w     13 calls
DIISManager::add_entry:       0.00u       0.02s       0.00w     13 calls
Form C      :       0.00u       0.00s       0.00w     13 calls
Form D      :       0.00u       0.00s       0.00w     13 calls
DIISManager::extrapolate:       0.00u       0.00s       0.00w     12 calls
DIISManager::extrapolate: bMatrix setup:       0.00u       0.00s       0.00w     12 calls
DIISManager::extrapolate: bMatrix pseudoinverse:       0.00u       0.00s       0.00w     12 calls
DIISManager::extrapolate: form new data:       0.00u       0.00s       0.00w     12 calls

***********************************************************

Host: Jeffs-MacBook-Pro.local

Timers On : Mon Mar 23 09:21:43 2015
Timers Off: Mon Mar 23 09:21:43 2015

Wall Time:        0.00 seconds

JK: (A|mn)  :       0.00u       0.00s       0.00w      1 call
JK: (A|Q)^-1/2:       0.02u       0.00s       0.00w      1 call
JK: (Q|mn)  :       0.00u       0.00s       0.00w      1 call
Form H      :       0.00u       0.00s       0.00w      1 call
Form S/X    :       0.00u       0.00s       0.00w      1 call
Guess       :       0.00u       0.00s       0.00w      1 call
Form G      :       0.00u       0.02s       0.00w     13 calls
JK: D       :       0.00u       0.00s       0.00w     13 calls
JK: USO2AO  :       0.00u       0.00s       0.00w      8 calls
JK: JK      :       0.00u       0.02s       0.00w     13 calls
JK: J       :       0.00u       0.00s       0.00w      8 calls
JK: J1      :       0.00u       0.00s       0.00w      8 calls
JK: J2      :       0.00u       0.00s       0.00w      8 calls
JK: K       :       0.00u       0.00s       0.00w      8 calls
JK: K1      :       0.00u       0.00s       0.00w      8 calls
JK: K2      :       0.00u       0.00s       0.00w      8 calls
JK: AO2USO  :       0.00u       0.00s       0.00w      8 calls
Form F      :       0.00u       0.00s       0.00w     13 calls
DIIS        :       0.00u       0.00s       0.00w     13 calls
DIISManager::add_entry:       0.00u       0.00s       0.00w     13 calls
Form C      :       0.00u       0.00s       0.00w     13 calls
Form D      :       0.00u       0.00s       0.00w     13 calls
DIISManager::extrapolate:       0.00u       0.00s       0.00w     12 calls
DIISManager::extrapolate: bMatrix setup:       0.00u       0.00s       0.00w     12 calls
DIISManager::extrapolate: bMatrix pseudoinverse:       0.00u       0.00s       0.00w     12 calls
DIISManager::extrapolate: form new data:       0.00u       0.00s       0.00w     12 calls

***********************************************************

Host: Jeffs-MacBook-Pro.local

Timers On : Mon Mar 23 09:21:48 2015
Timers Off: Mon Mar 23 09:21:49 2015

Wall Time:        1.00 seconds

JK: (A|mn)  :       0.00u       0.00s       0.00w      1 call
JK: (A|Q)^-1/2:       0.02u       0.00s       0.00w      1 call
JK: (Q|mn)  :       0.00u       0.00s       0.00w      1 call
Form H      :       0.00u       0.00s       0.00w      1 call
Form S/X    :       0.00u       0.00s       0.00w      1 call
Guess       :       0.00u       0.00s       0.00w      1 call
Form G      :       0.02u       0.00s       0.00w     13 calls
JK: D       :       0.00u       0.00s       0.00w     13 calls
JK: USO2AO  :       0.00u       0.00s       0.00w      8 calls
JK: JK      :       0.02u       0.00s       0.00w     13 calls
JK: J       :       0.00u       0.00s       0.00w      8 calls
JK: J1      :       0.00u       0.00s       0.00w      8 calls
JK: J2      :       0.00u       0.00s       0.00w      8 calls
JK: K       :       0.00u       0.00s       0.00w      8 calls
JK: K1      :       0.00u       0.00s       0.00w      8 calls
JK: K2      :       0.00u       0.00s       0.00w      8 calls
JK: AO2USO  :       0.00u       0.00s       0.00w      8 calls
Form F      :       0.00u       0.00s       0.00w     13 calls
DIIS        :       0.00u       0.00s       0.00w     13 calls
DIISManager::add_entry:       0.00u       0.00s       0.00w     13 calls
Form C      :       0.00u       0.00s       0.00w     13 calls
Form D      :       0.00u       0.00s       0.00w     13 calls
DIISManager::extrapolate:       0.00u       0.00s       0.00w     12 calls
DIISManager::extrapolate: bMatrix setup:       0.00u       0.00s       0.00w     12 calls
DIISManager::extrapolate: bMatrix pseudoinverse:       0.00u       0.00s       0.00w     12 calls
DIISManager::extrapolate: form new data:       0.00u       0.00s       0.00w     12 calls

***********************************************************

Host: Jeffs-MacBook-Pro.local

Timers On : Mon Mar 23 09:22:03 2015
Timers Off: Mon Mar 23 09:22:04 2015

Wall Time:        1.00 seconds

JK: (A|mn)  :       0.02u       0.00s       0.00w      1 call
JK: (A|Q)^-1/2:       0.02u       0.00s       0.00w      1 call
JK: (Q|mn)  :       0.00u       0.00s       0.00w      1 call
Form H      :       0.00u       0.05s       0.00w      1 call
Form S/X    :       0.00u       0.00s       0.00w      1 call
Guess       :       0.00u       0.00s       0.00w      1 call
Form G      :       0.00u       0.10s       0.00w     13 calls
JK: D       :       0.00u       0.00s       0.00w     13 calls
JK: USO2AO  :       0.00u       0.00s       0.00w      8 calls
JK: JK      :       0.00u       0.10s       0.00w     13 calls
JK: J       :       0.00u       0.00s       0.00w      8 calls
JK: J1      :       0.00u       0.00s       0.00w      8 calls
JK: J2      :       0.00u       0.00s       0.00w      8 calls
JK: K       :       0.00u       0.00s       0.00w      8 calls
JK: K1      :       0.00u       0.00s       0.00w      8 calls
JK: K2      :       0.00u       0.00s       0.00w      8 calls
JK: AO2USO  :       0.00u       0.00s       0.00w      8 calls
Form F      :       0.00u       0.00s       0.00w     13 calls
DIIS        :       0.00u       0.02s       0.00w     13 calls
DIISManager::add_entry:       0.00u       0.02s       0.00w     13 calls
Form C      :       0.00u       0.00s       0.00w     13 calls
Form D      :       0.00u       0.00s       0.00w     13 calls
DIISManager::extrapolate:       0.00u       0.00s       0.00w     12 calls
DIISManager::extrapolate: bMatrix setup:       0.00u       0.00s       0.00w     12 calls
DIISManager::extrapolate: bMatrix pseudoinverse:       0.00u       0.00s       0.00w     12 calls
DIISManager::extrapolate: form new data:       0.00u       0.00s       0.00w     12 calls

***********************************************************

Host: Jeffs-MacBook-Pro.local

Timers On : Mon Mar 23 09:25:53 2015
Timers Off: Mon Mar 23 09:25:54 2015

Wall Time:        1.00 seconds

JK: (A|mn)  :       0.00u       0.00s       0.00w      1 call
JK: (A|Q)^-1/2:       0.03u       0.00s       0.00w      1 call
JK: (Q|mn)  :       0.00u       0.00s       0.00w      1 call
Form H      :       0.00u       0.00s       0.00w      1 call
Form S/X    :       0.00u       0.00s       0.00w      1 call
Guess       :       0.00u       0.00s       0.00w      1 call
Form G      :       0.00u       0.00s       0.00w     13 calls
JK: D       :       0.00u       0.00s       0.00w     13 calls
JK: USO2AO  :       0.00u       0.00s       0.00w      8 calls
JK: JK      :       0.00u       0.00s       0.00w     13 calls
JK: J       :       0.00u       0.00s       0.00w      8 calls
JK: J1      :       0.00u       0.00s       0.00w      8 calls
JK: J2      :       0.00u       0.00s       0.00w      8 calls
JK: K       :       0.00u       0.00s       0.00w      8 calls
JK: K1      :       0.00u       0.00s       0.00w      8 calls
JK: K2      :       0.00u       0.00s       0.00w      8 calls
JK: AO2USO  :       0.00u       0.00s       0.00w      8 calls
Form F      :       0.00u       0.00s       0.00w     13 calls
DIIS        :       0.00u       0.00s       0.00w     13 calls
DIISManager::add_entry:       0.00u       0.00s       0.00w     13 calls
Form C      :       0.00u       0.00s       0.00w     13 calls
Form D      :       0.00u       0.00s       0.00w     13 calls
DIISManager::extrapolate:       0.00u       0.00s       0.00w     12 calls
DIISManager::extrapolate: bMatrix setup:       0.00u       0.00s       0.00w     12 calls
DIISManager::extrapolate: bMatrix pseudoinverse:       0.00u       0.00s       0.00w     12 calls
DIISManager::extrapolate: form new data:       0.00u       0.00s       0.00w     12 calls

***********************************************************

Host: Jeffs-MacBook-Pro.local

Timers On : Mon Mar 23 09:28:28 2015
Timers Off: Mon Mar 23 09:28:28 2015

Wall Time:        0.00 seconds

JK: (A|mn)  :       0.00u       0.00s       0.00w      1 call
JK: (A|Q)^-1/2:       0.03u       0.00s       0.00w      1 call
JK: (Q|mn)  :       0.00u       0.00s       0.00w      1 call
Form H      :       0.00u       0.00s       0.00w      1 call
Form S/X    :       0.00u       0.00s       0.00w      1 call
Guess       :       0.00u       0.00s       0.00w      1 call
Form G      :       0.00u       0.00s       0.00w     13 calls
JK: D       :       0.00u       0.00s       0.00w     13 calls
JK: USO2AO  :       0.00u       0.00s       0.00w      8 calls
JK: JK      :       0.00u       0.00s       0.00w     13 calls
JK: J       :       0.00u       0.00s       0.00w      8 calls
JK: J1      :       0.00u       0.00s       0.00w      8 calls
JK: J2      :       0.00u       0.00s       0.00w      8 calls
JK: K       :       0.00u       0.00s       0.00w      8 calls
JK: K1      :       0.00u       0.00s       0.00w      8 calls
JK: K2      :       0.00u       0.00s       0.00w      8 calls
JK: AO2USO  :       0.00u       0.00s       0.00w      8 calls
Form F      :       0.00u       0.00s       0.00w     13 calls
DIIS        :       0.00u       0.00s       0.00w     13 calls
DIISManager::add_entry:       0.00u       0.00s       0.00w     13 calls
Form C      :       0.00u       0.00s       0.00w     13 calls
Form D      :       0.00u       0.00s       0.00w     13 calls
DIISManager::extrapolate:       0.00u       0.00s       0.00w     12 calls
DIISManager::extrapolate: bMatrix setup:       0.00u       0.00s       0.00w     12 calls
DIISManager::extrapolate: bMatrix pseudoinverse:       0.00u       0.00s       0.00w     12 calls
DIISManager::extrapolate: form new data:       0.00u       0.00s       0.00w     12 calls

***********************************************************

Host: Jeffs-MacBook-Pro.local

Timers On : Mon Mar 23 09:37:32 2015
Timers Off: Mon Mar 23 09:37:32 2015

Wall Time:        0.00 seconds

JK: (A|mn)  :       0.00u       0.00s       0.00w      1 call
JK: (A|Q)^-1/2:       0.02u       0.00s       0.00w      1 call
JK: (Q|mn)  :       0.00u       0.00s       0.00w      1 call
Form H      :       0.00u       0.00s       0.00w      1 call
Form S/X    :       0.00u       0.00s       0.00w      1 call
Guess       :       0.00u       0.00s       0.00w      1 call
Form G      :       0.00u       0.00s       0.00w     13 calls
JK: D       :       0.00u       0.00s       0.00w     13 calls
JK: USO2AO  :       0.00u       0.00s       0.00w      8 calls
JK: JK      :       0.00u       0.00s       0.00w     13 calls
JK: J       :       0.00u       0.00s       0.00w      8 calls
JK: J1      :       0.00u       0.00s       0.00w      8 calls
JK: J2      :       0.00u       0.00s       0.00w      8 calls
JK: K       :       0.00u       0.00s       0.00w      8 calls
JK: K1      :       0.00u       0.00s       0.00w      8 calls
JK: K2      :       0.00u       0.00s       0.00w      8 calls
JK: AO2USO  :       0.00u       0.00s       0.00w      8 calls
Form F      :       0.00u       0.00s       0.00w     13 calls
DIIS        :       0.00u       0.00s       0.00w     13 calls
DIISManager::add_entry:       0.00u       0.00s       0.00w     13 calls
Form C      :       0.00u       0.00s       0.00w     13 calls
Form D      :       0.00u       0.00s       0.00w     13 calls
DIISManager::extrapolate:       0.00u       0.00s       0.00w     12 calls
DIISManager::extrapolate: bMatrix setup:       0.00u       0.00s       0.00w     12 calls
DIISManager::extrapolate: bMatrix pseudoinverse:       0.00u       0.00s       0.00w     12 calls
DIISManager::extrapolate: form new data:       0.00u       0.00s       0.00w     12 calls

***********************************************************

Host: Jeffs-MacBook-Pro.local

Timers On : Mon Mar 23 09:39:02 2015
Timers Off: Mon Mar 23 09:39:02 2015

Wall Time:        0.00 seconds

JK: (A|mn)  :       0.02u       0.00s       0.00w      1 call
JK: (A|Q)^-1/2:       0.02u       0.00s       0.00w      1 call
JK: (Q|mn)  :       0.00u       0.00s       0.00w      1 call
Form H      :       0.00u       0.00s       0.00w      1 call
Form S/X    :       0.00u       0.00s       0.00w      1 call
Guess       :       0.00u       0.00s       0.00w      1 call
Form G      :       0.00u       0.00s       0.00w     13 calls
JK: D       :       0.00u       0.00s       0.00w     13 calls
JK: USO2AO  :       0.00u       0.00s       0.00w      8 calls
JK: JK      :       0.00u       0.00s       0.00w     13 calls
JK: J       :       0.00u       0.00s       0.00w      8 calls
JK: J1      :       0.00u       0.00s       0.00w      8 calls
JK: J2      :       0.00u       0.00s       0.00w      8 calls
JK: K       :       0.00u       0.00s       0.00w      8 calls
JK: K1      :       0.00u       0.00s       0.00w      8 calls
JK: K2      :       0.00u       0.00s       0.00w      8 calls
JK: AO2USO  :       0.00u       0.00s       0.00w      8 calls
Form F      :       0.00u       0.00s       0.00w     13 calls
DIIS        :       0.00u       0.00s       0.00w     13 calls
DIISManager::add_entry:       0.00u       0.00s       0.00w     13 calls
Form C      :       0.00u       0.00s       0.00w     13 calls
Form D      :       0.00u       0.00s       0.00w     13 calls
DIISManager::extrapolate:       0.00u       0.00s       0.00w     12 calls
DIISManager::extrapolate: bMatrix setup:       0.00u       0.00s       0.00w     12 calls
DIISManager::extrapolate: bMatrix pseudoinverse:       0.00u       0.00s       0.00w     12 calls
DIISManager::extrapolate: form new data:       0.00u       0.00s       0.00w     12 calls

***********************************************************

Host: Jeffs-MacBook-Pro.local

Timers On : Mon Mar 23 09:41:59 2015
Timers Off: Mon Mar 23 09:41:59 2015

Wall Time:        0.00 seconds

JK: (A|mn)  :       0.00u       0.00s       0.00w      1 call
JK: (A|Q)^-1/2:       0.02u       0.00s       0.00w      1 call
JK: (Q|mn)  :       0.00u       0.00s       0.00w      1 call
Form H      :       0.00u       0.00s       0.00w      1 call
Form S/X    :       0.00u       0.00s       0.00w      1 call
Guess       :       0.00u       0.00s       0.00w      1 call
Form G      :       0.00u       0.00s       0.00w     13 calls
JK: D       :       0.00u       0.00s       0.00w     13 calls
JK: USO2AO  :       0.00u       0.00s       0.00w      8 calls
JK: JK      :       0.00u       0.00s       0.00w     13 calls
JK: J       :       0.00u       0.00s       0.00w      8 calls
JK: J1      :       0.00u       0.00s       0.00w      8 calls
JK: J2      :       0.00u       0.00s       0.00w      8 calls
JK: K       :       0.00u       0.00s       0.00w      8 calls
JK: K1      :       0.00u       0.00s       0.00w      8 calls
JK: K2      :       0.00u       0.00s       0.00w      8 calls
JK: AO2USO  :       0.00u       0.00s       0.00w      8 calls
Form F      :       0.00u       0.00s       0.00w     13 calls
DIIS        :       0.00u       0.00s       0.00w     13 calls
DIISManager::add_entry:       0.00u       0.00s       0.00w     13 calls
Form C      :       0.00u       0.00s       0.00w     13 calls
Form D      :       0.00u       0.00s       0.00w     13 calls
DIISManager::extrapolate:       0.00u       0.00s       0.00w     12 calls
DIISManager::extrapolate: bMatrix setup:       0.00u       0.00s       0.00w     12 calls
DIISManager::extrapolate: bMatrix pseudoinverse:       0.00u       0.00s       0.00w     12 calls
DIISManager::extrapolate: form new data:       0.00u       0.00s       0.00w     12 calls

***********************************************************

Host: Jeffs-MacBook-Pro.local

Timers On : Mon Mar 23 09:42:31 2015
Timers Off: Mon Mar 23 09:42:31 2015

Wall Time:        0.00 seconds

JK: (A|mn)  :       0.00u       0.00s       0.00w      1 call
JK: (A|Q)^-1/2:       0.02u       0.00s       0.00w      1 call
JK: (Q|mn)  :       0.00u       0.00s       0.00w      1 call
Form H      :       0.00u       0.00s       0.00w      1 call
Form S/X    :       0.00u       0.00s       0.00w      1 call
Guess       :       0.00u       0.00s       0.00w      1 call
Form G      :       0.02u       0.00s       0.00w     13 calls
JK: D       :       0.00u       0.00s       0.00w     13 calls
JK: USO2AO  :       0.00u       0.00s       0.00w      8 calls
JK: JK      :       0.02u       0.00s       0.00w     13 calls
JK: J       :       0.00u       0.00s       0.00w      8 calls
JK: J1      :       0.00u       0.00s       0.00w      8 calls
JK: J2      :       0.00u       0.00s       0.00w      8 calls
JK: K       :       0.00u       0.00s       0.00w      8 calls
JK: K1      :       0.00u       0.00s       0.00w      8 calls
JK: K2      :       0.00u       0.00s       0.00w      8 calls
JK: AO2USO  :       0.00u       0.00s       0.00w      8 calls
Form F      :       0.00u       0.00s       0.00w     13 calls
DIIS        :       0.00u       0.00s       0.00w     13 calls
DIISManager::add_entry:       0.00u       0.00s       0.00w     13 calls
Form C      :       0.00u       0.00s       0.00w     13 calls
Form D      :       0.00u       0.00s       0.00w     13 calls
DIISManager::extrapolate:       0.00u       0.00s       0.00w     12 calls
DIISManager::extrapolate: bMatrix setup:       0.00u       0.00s       0.00w     12 calls
DIISManager::extrapolate: bMatrix pseudoinverse:       0.00u       0.00s       0.00w     12 calls
DIISManager::extrapolate: form new data:       0.00u       0.00s       0.00w     12 calls

***********************************************************

Host: Jeffs-MacBook-Pro.local

Timers On : Mon Mar 23 09:43:07 2015
Timers Off: Mon Mar 23 09:43:08 2015

Wall Time:        1.00 seconds

JK: (A|mn)  :       0.00u       0.00s       0.00w      1 call
JK: (A|Q)^-1/2:       0.02u       0.00s       0.00w      1 call
JK: (Q|mn)  :       0.00u       0.00s       0.00w      1 call
Form H      :       0.00u       0.00s       0.00w      1 call
Form S/X    :       0.00u       0.00s       0.00w      1 call
Guess       :       0.00u       0.00s       0.00w      1 call
Form G      :       0.00u       0.00s       0.00w     13 calls
JK: D       :       0.00u       0.00s       0.00w     13 calls
JK: USO2AO  :       0.00u       0.00s       0.00w      8 calls
JK: JK      :       0.00u       0.00s       0.00w     13 calls
JK: J       :       0.00u       0.00s       0.00w      8 calls
JK: J1      :       0.00u       0.00s       0.00w      8 calls
JK: J2      :       0.00u       0.00s       0.00w      8 calls
JK: K       :       0.00u       0.00s       0.00w      8 calls
JK: K1      :       0.00u       0.00s       0.00w      8 calls
JK: K2      :       0.00u       0.00s       0.00w      8 calls
JK: AO2USO  :       0.00u       0.00s       0.00w      8 calls
Form F      :       0.00u       0.00s       0.00w     13 calls
DIIS        :       0.00u       0.00s       0.00w     13 calls
DIISManager::add_entry:       0.00u       0.00s       0.00w     13 calls
Form C      :       0.00u       0.00s       0.00w     13 calls
Form D      :       0.00u       0.00s       0.00w     13 calls
DIISManager::extrapolate:       0.00u       0.00s       0.00w     12 calls
DIISManager::extrapolate: bMatrix setup:       0.00u       0.00s       0.00w     12 calls
DIISManager::extrapolate: bMatrix pseudoinverse:       0.00u       0.00s       0.00w     12 calls
DIISManager::extrapolate: form new data:       0.00u       0.00s       0.00w     12 calls

***********************************************************

Host: Jeffs-MacBook-Pro.local

Timers On : Mon Mar 23 09:43:24 2015
Timers Off: Mon Mar 23 09:43:25 2015

Wall Time:        1.00 seconds

JK: (A|mn)  :       0.00u       0.00s       0.00w      1 call
JK: (A|Q)^-1/2:       0.02u       0.00s       0.00w      1 call
JK: (Q|mn)  :       0.00u       0.00s       0.00w      1 call
Form H      :       0.00u       0.00s       0.00w      1 call
Form S/X    :       0.00u       0.00s       0.00w      1 call
Guess       :       0.00u       0.00s       0.00w      1 call
Form G      :       0.00u       0.00s       0.00w     13 calls
JK: D       :       0.00u       0.00s       0.00w     13 calls
JK: USO2AO  :       0.00u       0.00s       0.00w      8 calls
JK: JK      :       0.00u       0.00s       0.00w     13 calls
JK: J       :       0.00u       0.00s       0.00w      8 calls
JK: J1      :       0.00u       0.00s       0.00w      8 calls
JK: J2      :       0.00u       0.00s       0.00w      8 calls
JK: K       :       0.00u       0.00s       0.00w      8 calls
JK: K1      :       0.00u       0.00s       0.00w      8 calls
JK: K2      :       0.00u       0.00s       0.00w      8 calls
JK: AO2USO  :       0.00u       0.00s       0.00w      8 calls
Form F      :       0.00u       0.00s       0.00w     13 calls
DIIS        :       0.00u       0.00s       0.00w     13 calls
DIISManager::add_entry:       0.00u       0.00s       0.00w     13 calls
Form C      :       0.00u       0.00s       0.00w     13 calls
Form D      :       0.00u       0.00s       0.00w     13 calls
DIISManager::extrapolate:       0.00u       0.00s       0.00w     12 calls
DIISManager::extrapolate: bMatrix setup:       0.00u       0.00s       0.00w     12 calls
DIISManager::extrapolate: bMatrix pseudoinverse:       0.00u       0.00s       0.00w     12 calls
DIISManager::extrapolate: form new data:       0.00u       0.00s       0.00w     12 calls

***********************************************************

Host: Jeffs-MacBook-Pro.local

Timers On : Mon Mar 23 09:43:43 2015
Timers Off: Mon Mar 23 09:43:44 2015

Wall Time:        1.00 seconds

JK: (A|mn)  :       0.00u       0.00s       0.00w      1 call
JK: (A|Q)^-1/2:       0.02u       0.00s       0.00w      1 call
JK: (Q|mn)  :       0.00u       0.00s       0.00w      1 call
Form H      :       0.00u       0.00s       0.00w      1 call
Form S/X    :       0.00u       0.00s       0.00w      1 call
Guess       :       0.00u       0.00s       0.00w      1 call
Form G      :       0.00u       0.00s       0.00w     13 calls
JK: D       :       0.00u       0.00s       0.00w     13 calls
JK: USO2AO  :       0.00u       0.00s       0.00w      8 calls
JK: JK      :       0.00u       0.00s       0.00w     13 calls
JK: J       :       0.00u       0.00s       0.00w      8 calls
JK: J1      :       0.00u       0.00s       0.00w      8 calls
JK: J2      :       0.00u       0.00s       0.00w      8 calls
JK: K       :       0.00u       0.00s       0.00w      8 calls
JK: K1      :       0.00u       0.00s       0.00w      8 calls
JK: K2      :       0.00u       0.00s       0.00w      8 calls
JK: AO2USO  :       0.00u       0.00s       0.00w      8 calls
Form F      :       0.00u       0.00s       0.00w     13 calls
DIIS        :       0.00u       0.00s       0.00w     13 calls
DIISManager::add_entry:       0.00u       0.00s       0.00w     13 calls
Form C      :       0.00u       0.00s       0.00w     13 calls
Form D      :       0.00u       0.00s       0.00w     13 calls
DIISManager::extrapolate:       0.00u       0.00s       0.00w     12 calls
DIISManager::extrapolate: bMatrix setup:       0.00u       0.00s       0.00w     12 calls
DIISManager::extrapolate: bMatrix pseudoinverse:       0.00u       0.00s       0.00w     12 calls
DIISManager::extrapolate: form new data:       0.00u       0.00s       0.00w     12 calls

***********************************************************

Host: Jeffs-MacBook-Pro.local

Timers On : Mon Mar 23 09:43:57 2015
Timers Off: Mon Mar 23 09:44:00 2015

Wall Time:        3.00 seconds

JK: (A|mn)  :       0.02u       0.00s       0.00w      1 call
JK: (A|Q)^-1/2:       0.02u       0.00s       0.00w      1 call
JK: (Q|mn)  :       0.00u       0.00s       0.00w      1 call
Form H      :       0.00u       0.00s       0.00w      1 call
Form S/X    :       0.00u       0.00s       0.00w      1 call
Guess       :       0.00u       0.00s       0.00w      1 call
Form G      :       0.00u       0.00s       0.00w     17 calls
JK: D       :       0.00u       0.00s       0.00w     17 calls
JK: USO2AO  :       0.00u       0.00s       0.00w     12 calls
JK: JK      :       0.00u       0.00s       0.00w     17 calls
JK: J       :       0.00u       0.00s       0.00w     12 calls
JK: J1      :       0.00u       0.00s       0.00w     12 calls
JK: J2      :       0.00u       0.00s       0.00w     12 calls
JK: K       :       0.00u       0.00s       0.00w     12 calls
JK: K1      :       0.00u       0.00s       0.00w     12 calls
JK: K2      :       0.00u       0.00s       0.00w     12 calls
JK: AO2USO  :       0.00u       0.00s       0.00w     12 calls
Form F      :       0.00u       0.00s       0.00w     17 calls
DIIS        :       0.00u       0.00s       0.00w     17 calls
DIISManager::add_entry:       0.00u       0.00s       0.00w     17 calls
Form C      :       0.00u       0.00s       0.00w     17 calls
Form D      :       0.00u       0.00s       0.00w     17 calls
DIISManager::extrapolate:       0.00u       0.00s       0.00w     16 calls
DIISManager::extrapolate: bMatrix setup:       0.00u       0.00s       0.00w     16 calls
DIISManager::extrapolate: bMatrix pseudoinverse:       0.00u       0.00s       0.00w     16 calls
DIISManager::extrapolate: form new data:       0.00u       0.00s       0.00w     16 calls

***********************************************************

Host: Jeffs-MacBook-Pro.local

Timers On : Mon Mar 23 09:46:10 2015
Timers Off: Mon Mar 23 09:46:11 2015

Wall Time:        1.00 seconds

JK: (A|mn)  :       0.00u       0.00s       0.00w      1 call
JK: (A|Q)^-1/2:       0.02u       0.00s       0.00w      1 call
JK: (Q|mn)  :       0.00u       0.00s       0.00w      1 call
Form H      :       0.00u       0.00s       0.00w      1 call
Form S/X    :       0.00u       0.00s       0.00w      1 call
Guess       :       0.00u       0.00s       0.00w      1 call
Form G      :       0.00u       0.00s       0.00w     13 calls
JK: D       :       0.00u       0.00s       0.00w     13 calls
JK: USO2AO  :       0.00u       0.00s       0.00w      8 calls
JK: JK      :       0.00u       0.00s       0.00w     13 calls
JK: J       :       0.00u       0.00s       0.00w      8 calls
JK: J1      :       0.00u       0.00s       0.00w      8 calls
JK: J2      :       0.00u       0.00s       0.00w      8 calls
JK: K       :       0.00u       0.00s       0.00w      8 calls
JK: K1      :       0.00u       0.00s       0.00w      8 calls
JK: K2      :       0.00u       0.00s       0.00w      8 calls
JK: AO2USO  :       0.00u       0.00s       0.00w      8 calls
Form F      :       0.00u       0.00s       0.00w     13 calls
DIIS        :       0.00u       0.00s       0.00w     13 calls
DIISManager::add_entry:       0.00u       0.00s       0.00w     13 calls
Form C      :       0.00u       0.00s       0.00w     13 calls
Form D      :       0.00u       0.00s       0.00w     13 calls
DIISManager::extrapolate:       0.00u       0.00s       0.00w     12 calls
DIISManager::extrapolate: bMatrix setup:       0.00u       0.00s       0.00w     12 calls
DIISManager::extrapolate: bMatrix pseudoinverse:       0.00u       0.00s       0.00w     12 calls
DIISManager::extrapolate: form new data:       0.00u       0.00s       0.00w     12 calls

***********************************************************

Host: Jeffs-MacBook-Pro.local

Timers On : Mon Mar 23 09:49:47 2015
Timers Off: Mon Mar 23 09:49:47 2015

Wall Time:        0.00 seconds

JK: (A|mn)  :       0.00u       0.00s       0.00w      1 call
JK: (A|Q)^-1/2:       0.02u       0.00s       0.00w      1 call
JK: (Q|mn)  :       0.00u       0.00s       0.00w      1 call
Form H      :       0.00u       0.00s       0.00w      1 call
Form S/X    :       0.00u       0.00s       0.00w      1 call
Guess       :       0.00u       0.00s       0.00w      1 call
Form G      :       0.00u       0.00s       0.00w     13 calls
JK: D       :       0.00u       0.00s       0.00w     13 calls
JK: USO2AO  :       0.00u       0.00s       0.00w      8 calls
JK: JK      :       0.00u       0.00s       0.00w     13 calls
JK: J       :       0.00u       0.00s       0.00w      8 calls
JK: J1      :       0.00u       0.00s       0.00w      8 calls
JK: J2      :       0.00u       0.00s       0.00w      8 calls
JK: K       :       0.00u       0.00s       0.00w      8 calls
JK: K1      :       0.00u       0.00s       0.00w      8 calls
JK: K2      :       0.00u       0.00s       0.00w      8 calls
JK: AO2USO  :       0.00u       0.00s       0.00w      8 calls
Form F      :       0.00u       0.00s       0.00w     13 calls
DIIS        :       0.00u       0.00s       0.00w     13 calls
DIISManager::add_entry:       0.00u       0.00s       0.00w     13 calls
Form C      :       0.00u       0.00s       0.00w     13 calls
Form D      :       0.00u       0.00s       0.00w     13 calls
DIISManager::extrapolate:       0.00u       0.00s       0.00w     12 calls
DIISManager::extrapolate: bMatrix setup:       0.00u       0.00s       0.00w     12 calls
DIISManager::extrapolate: bMatrix pseudoinverse:       0.00u       0.00s       0.00w     12 calls
DIISManager::extrapolate: form new data:       0.00u       0.00s       0.00w     12 calls

***********************************************************

Host: Jeffs-MacBook-Pro.local

Timers On : Mon Mar 23 09:56:52 2015
Timers Off: Mon Mar 23 09:56:53 2015

Wall Time:        1.00 seconds

JK: (A|mn)  :       0.00u       0.00s       0.00w      1 call
JK: (A|Q)^-1/2:       0.02u       0.00s       0.00w      1 call
JK: (Q|mn)  :       0.00u       0.00s       0.00w      1 call
Form H      :       0.00u       0.00s       0.00w      1 call
Form S/X    :       0.00u       0.00s       0.00w      1 call
Guess       :       0.00u       0.00s       0.00w      1 call
Form G      :       0.02u       0.02s       0.00w     13 calls
JK: D       :       0.00u       0.00s       0.00w     13 calls
JK: USO2AO  :       0.00u       0.00s       0.00w      8 calls
JK: JK      :       0.02u       0.02s       0.00w     13 calls
JK: J       :       0.00u       0.00s       0.00w      8 calls
JK: J1      :       0.00u       0.00s       0.00w      8 calls
JK: J2      :       0.00u       0.00s       0.00w      8 calls
JK: K       :       0.02u       0.00s       0.00w      8 calls
JK: K1      :       0.02u       0.00s       0.00w      8 calls
JK: K2      :       0.00u       0.00s       0.00w      8 calls
JK: AO2USO  :       0.00u       0.00s       0.00w      8 calls
Form F      :       0.00u       0.00s       0.00w     13 calls
DIIS        :       0.00u       0.00s       0.00w     13 calls
DIISManager::add_entry:       0.00u       0.00s       0.00w     13 calls
Form C      :       0.00u       0.00s       0.00w     13 calls
Form D      :       0.00u       0.00s       0.00w     13 calls
DIISManager::extrapolate:       0.00u       0.00s       0.00w     12 calls
DIISManager::extrapolate: bMatrix setup:       0.00u       0.00s       0.00w     12 calls
DIISManager::extrapolate: bMatrix pseudoinverse:       0.00u       0.00s       0.00w     12 calls
DIISManager::extrapolate: form new data:       0.00u       0.00s       0.00w     12 calls

***********************************************************

Host: Jeffs-MacBook-Pro.local

Timers On : Mon Mar 23 10:02:09 2015
Timers Off: Mon Mar 23 10:02:09 2015

Wall Time:        0.00 seconds

JK: (A|mn)  :       0.02u       0.00s       0.00w      1 call
JK: (A|Q)^-1/2:       0.02u       0.00s       0.00w      1 call
JK: (Q|mn)  :       0.00u       0.00s       0.00w      1 call
Form H      :       0.00u       0.00s       0.00w      1 call
Form S/X    :       0.00u       0.00s       0.00w      1 call
Guess       :       0.00u       0.00s       0.00w      1 call
Form G      :       0.00u       0.00s       0.00w     13 calls
JK: D       :       0.00u       0.00s       0.00w     13 calls
JK: USO2AO  :       0.00u       0.00s       0.00w      8 calls
JK: JK      :       0.00u       0.00s       0.00w     13 calls
JK: J       :       0.00u       0.00s       0.00w      8 calls
JK: J1      :       0.00u       0.00s       0.00w      8 calls
JK: J2      :       0.00u       0.00s       0.00w      8 calls
JK: K       :       0.00u       0.00s       0.00w      8 calls
JK: K1      :       0.00u       0.00s       0.00w      8 calls
JK: K2      :       0.00u       0.00s       0.00w      8 calls
JK: AO2USO  :       0.00u       0.00s       0.00w      8 calls
Form F      :       0.00u       0.00s       0.00w     13 calls
DIIS        :       0.00u       0.00s       0.00w     13 calls
DIISManager::add_entry:       0.00u       0.00s       0.00w     13 calls
Form C      :       0.00u       0.00s       0.00w     13 calls
Form D      :       0.00u       0.00s       0.00w     13 calls
DIISManager::extrapolate:       0.00u       0.00s       0.00w     12 calls
DIISManager::extrapolate: bMatrix setup:       0.00u       0.00s       0.00w     12 calls
DIISManager::extrapolate: bMatrix pseudoinverse:       0.00u       0.00s       0.00w     12 calls
DIISManager::extrapolate: form new data:       0.00u       0.00s       0.00w     12 calls

***********************************************************

Host: Jeffs-MacBook-Pro.local

Timers On : Mon Mar 23 10:02:19 2015
Timers Off: Mon Mar 23 10:02:19 2015

Wall Time:        0.00 seconds

JK: (A|mn)  :       0.00u       0.00s       0.00w      1 call
JK: (A|Q)^-1/2:       0.02u       0.00s       0.00w      1 call
JK: (Q|mn)  :       0.00u       0.00s       0.00w      1 call
Form H      :       0.00u       0.00s       0.00w      1 call
Form S/X    :       0.00u       0.00s       0.00w      1 call
Guess       :       0.00u       0.00s       0.00w      1 call
Form G      :       0.00u       0.00s       0.00w     13 calls
JK: D       :       0.00u       0.00s       0.00w     13 calls
JK: USO2AO  :       0.00u       0.00s       0.00w      8 calls
JK: JK      :       0.00u       0.00s       0.00w     13 calls
JK: J       :       0.00u       0.00s       0.00w      8 calls
JK: J1      :       0.00u       0.00s       0.00w      8 calls
JK: J2      :       0.00u       0.00s       0.00w      8 calls
JK: K       :       0.00u       0.00s       0.00w      8 calls
JK: K1      :       0.00u       0.00s       0.00w      8 calls
JK: K2      :       0.00u       0.00s       0.00w      8 calls
JK: AO2USO  :       0.00u       0.00s       0.00w      8 calls
Form F      :       0.00u       0.00s       0.00w     13 calls
DIIS        :       0.00u       0.00s       0.00w     13 calls
DIISManager::add_entry:       0.00u       0.00s       0.00w     13 calls
Form C      :       0.00u       0.00s       0.00w     13 calls
Form D      :       0.00u       0.00s       0.00w     13 calls
DIISManager::extrapolate:       0.00u       0.00s       0.00w     12 calls
DIISManager::extrapolate: bMatrix setup:       0.00u       0.00s       0.00w     12 calls
DIISManager::extrapolate: bMatrix pseudoinverse:       0.00u       0.00s       0.00w     12 calls
DIISManager::extrapolate: form new data:       0.00u       0.00s       0.00w     12 calls

***********************************************************

Host: Jeffs-MacBook-Pro.local

Timers On : Mon Mar 23 10:02:39 2015
Timers Off: Mon Mar 23 10:02:40 2015

Wall Time:        1.00 seconds

JK: (A|mn)  :       0.00u       0.00s       0.00w      1 call
JK: (A|Q)^-1/2:       0.02u       0.00s       0.00w      1 call
JK: (Q|mn)  :       0.00u       0.00s       0.00w      1 call
Form H      :       0.00u       0.00s       0.00w      1 call
Form S/X    :       0.00u       0.00s       0.00w      1 call
Guess       :       0.00u       0.00s       0.00w      1 call
Form G      :       0.00u       0.00s       0.00w     13 calls
JK: D       :       0.00u       0.00s       0.00w     13 calls
JK: USO2AO  :       0.00u       0.00s       0.00w      8 calls
JK: JK      :       0.00u       0.00s       0.00w     13 calls
JK: J       :       0.00u       0.00s       0.00w      8 calls
JK: J1      :       0.00u       0.00s       0.00w      8 calls
JK: J2      :       0.00u       0.00s       0.00w      8 calls
JK: K       :       0.00u       0.00s       0.00w      8 calls
JK: K1      :       0.00u       0.00s       0.00w      8 calls
JK: K2      :       0.00u       0.00s       0.00w      8 calls
JK: AO2USO  :       0.00u       0.00s       0.00w      8 calls
Form F      :       0.00u       0.00s       0.00w     13 calls
DIIS        :       0.00u       0.00s       0.00w     13 calls
DIISManager::add_entry:       0.00u       0.00s       0.00w     13 calls
Form C      :       0.00u       0.00s       0.00w     13 calls
Form D      :       0.00u       0.00s       0.00w     13 calls
DIISManager::extrapolate:       0.00u       0.00s       0.00w     12 calls
DIISManager::extrapolate: bMatrix setup:       0.00u       0.00s       0.00w     12 calls
DIISManager::extrapolate: bMatrix pseudoinverse:       0.00u       0.00s       0.00w     12 calls
DIISManager::extrapolate: form new data:       0.00u       0.00s       0.00w     12 calls

***********************************************************

Host: Jeffs-MacBook-Pro.local

Timers On : Mon Mar 23 10:04:34 2015
Timers Off: Mon Mar 23 10:04:34 2015

Wall Time:        0.00 seconds

JK: (A|mn)  :       0.00u       0.00s       0.00w      1 call
JK: (A|Q)^-1/2:       0.02u       0.00s       0.00w      1 call
JK: (Q|mn)  :       0.00u       0.00s       0.00w      1 call
Form H      :       0.00u       0.00s       0.00w      1 call
Form S/X    :       0.00u       0.00s       0.00w      1 call
Guess       :       0.00u       0.00s       0.00w      1 call
Form G      :       0.00u       0.00s       0.00w     13 calls
JK: D       :       0.00u       0.00s       0.00w     13 calls
JK: USO2AO  :       0.00u       0.00s       0.00w      8 calls
JK: JK      :       0.00u       0.00s       0.00w     13 calls
JK: J       :       0.00u       0.00s       0.00w      8 calls
JK: J1      :       0.00u       0.00s       0.00w      8 calls
JK: J2      :       0.00u       0.00s       0.00w      8 calls
JK: K       :       0.00u       0.00s       0.00w      8 calls
JK: K1      :       0.00u       0.00s       0.00w      8 calls
JK: K2      :       0.00u       0.00s       0.00w      8 calls
JK: AO2USO  :       0.00u       0.00s       0.00w      8 calls
Form F      :       0.00u       0.00s       0.00w     13 calls
DIIS        :       0.00u       0.00s       0.00w     13 calls
DIISManager::add_entry:       0.00u       0.00s       0.00w     13 calls
Form C      :       0.00u       0.00s       0.00w     13 calls
Form D      :       0.00u       0.00s       0.00w     13 calls
DIISManager::extrapolate:       0.00u       0.00s       0.00w     12 calls
DIISManager::extrapolate: bMatrix setup:       0.00u       0.00s       0.00w     12 calls
DIISManager::extrapolate: bMatrix pseudoinverse:       0.00u       0.00s       0.00w     12 calls
DIISManager::extrapolate: form new data:       0.00u       0.00s       0.00w     12 calls

***********************************************************

Host: Jeffs-MacBook-Pro.local

Timers On : Mon Mar 23 10:04:48 2015
Timers Off: Mon Mar 23 10:04:48 2015

Wall Time:        0.00 seconds

JK: (A|mn)  :       0.00u       0.00s       0.00w      1 call
JK: (A|Q)^-1/2:       0.03u       0.00s       0.00w      1 call
JK: (Q|mn)  :       0.00u       0.00s       0.00w      1 call
Form H      :       0.00u       0.00s       0.00w      1 call
Form S/X    :       0.00u       0.00s       0.00w      1 call
Guess       :       0.00u       0.00s       0.00w      1 call
Form G      :       0.00u       0.00s       0.00w     13 calls
JK: D       :       0.00u       0.00s       0.00w     13 calls
JK: USO2AO  :       0.00u       0.00s       0.00w      8 calls
JK: JK      :       0.00u       0.00s       0.00w     13 calls
JK: J       :       0.00u       0.00s       0.00w      8 calls
JK: J1      :       0.00u       0.00s       0.00w      8 calls
JK: J2      :       0.00u       0.00s       0.00w      8 calls
JK: K       :       0.00u       0.00s       0.00w      8 calls
JK: K1      :       0.00u       0.00s       0.00w      8 calls
JK: K2      :       0.00u       0.00s       0.00w      8 calls
JK: AO2USO  :       0.00u       0.00s       0.00w      8 calls
Form F      :       0.00u       0.00s       0.00w     13 calls
DIIS        :       0.00u       0.00s       0.00w     13 calls
DIISManager::add_entry:       0.00u       0.00s       0.00w     13 calls
Form C      :       0.00u       0.00s       0.00w     13 calls
Form D      :       0.00u       0.00s       0.00w     13 calls
DIISManager::extrapolate:       0.00u       0.00s       0.00w     12 calls
DIISManager::extrapolate: bMatrix setup:       0.00u       0.00s       0.00w     12 calls
DIISManager::extrapolate: bMatrix pseudoinverse:       0.00u       0.00s       0.00w     12 calls
DIISManager::extrapolate: form new data:       0.00u       0.00s       0.00w     12 calls

***********************************************************

Host: Jeffs-MacBook-Pro.local

Timers On : Mon Mar 23 10:06:00 2015
Timers Off: Mon Mar 23 10:06:00 2015

Wall Time:        0.00 seconds

JK: (A|mn)  :       0.02u       0.00s       0.00w      1 call
JK: (A|Q)^-1/2:       0.02u       0.00s       0.00w      1 call
JK: (Q|mn)  :       0.00u       0.00s       0.00w      1 call
Form H      :       0.00u       0.00s       0.00w      1 call
Form S/X    :       0.00u       0.00s       0.00w      1 call
Guess       :       0.00u       0.00s       0.00w      1 call
Form G      :       0.00u       0.00s       0.00w     13 calls
JK: D       :       0.00u       0.00s       0.00w     13 calls
JK: USO2AO  :       0.00u       0.00s       0.00w      8 calls
JK: JK      :       0.00u       0.00s       0.00w     13 calls
JK: J       :       0.00u       0.00s       0.00w      8 calls
JK: J1      :       0.00u       0.00s       0.00w      8 calls
JK: J2      :       0.00u       0.00s       0.00w      8 calls
JK: K       :       0.00u       0.00s       0.00w      8 calls
JK: K1      :       0.00u       0.00s       0.00w      8 calls
JK: K2      :       0.00u       0.00s       0.00w      8 calls
JK: AO2USO  :       0.00u       0.00s       0.00w      8 calls
Form F      :       0.00u       0.00s       0.00w     13 calls
DIIS        :       0.00u       0.00s       0.00w     13 calls
DIISManager::add_entry:       0.00u       0.00s       0.00w     13 calls
Form C      :       0.00u       0.00s       0.00w     13 calls
Form D      :       0.00u       0.00s       0.00w     13 calls
DIISManager::extrapolate:       0.00u       0.00s       0.00w     12 calls
DIISManager::extrapolate: bMatrix setup:       0.00u       0.00s       0.00w     12 calls
DIISManager::extrapolate: bMatrix pseudoinverse:       0.00u       0.00s       0.00w     12 calls
DIISManager::extrapolate: form new data:       0.00u       0.00s       0.00w     12 calls

***********************************************************

Host: Jeffs-MacBook-Pro.local

Timers On : Mon Mar 23 10:07:46 2015
Timers Off: Mon Mar 23 10:07:47 2015

Wall Time:        1.00 seconds

JK: (A|mn)  :       0.00u       0.00s       0.00w      1 call
JK: (A|Q)^-1/2:       0.02u       0.00s       0.00w      1 call
JK: (Q|mn)  :       0.00u       0.00s       0.00w      1 call
Form H      :       0.00u       0.00s       0.00w      1 call
Form S/X    :       0.00u       0.00s       0.00w      1 call
Guess       :       0.00u       0.00s       0.00w      1 call
Form G      :       0.00u       0.00s       0.00w     13 calls
JK: D       :       0.00u       0.00s       0.00w     13 calls
JK: USO2AO  :       0.00u       0.00s       0.00w      8 calls
JK: JK      :       0.00u       0.00s       0.00w     13 calls
JK: J       :       0.00u       0.00s       0.00w      8 calls
JK: J1      :       0.00u       0.00s       0.00w      8 calls
JK: J2      :       0.00u       0.00s       0.00w      8 calls
JK: K       :       0.00u       0.00s       0.00w      8 calls
JK: K1      :       0.00u       0.00s       0.00w      8 calls
JK: K2      :       0.00u       0.00s       0.00w      8 calls
JK: AO2USO  :       0.00u       0.00s       0.00w      8 calls
Form F      :       0.00u       0.00s       0.00w     13 calls
DIIS        :       0.00u       0.00s       0.00w     13 calls
DIISManager::add_entry:       0.00u       0.00s       0.00w     13 calls
Form C      :       0.00u       0.00s       0.00w     13 calls
Form D      :       0.00u       0.00s       0.00w     13 calls
DIISManager::extrapolate:       0.00u       0.00s       0.00w     12 calls
DIISManager::extrapolate: bMatrix setup:       0.00u       0.00s       0.00w     12 calls
DIISManager::extrapolate: bMatrix pseudoinverse:       0.00u       0.00s       0.00w     12 calls
DIISManager::extrapolate: form new data:       0.00u       0.00s       0.00w     12 calls

***********************************************************

Host: Jeffs-MacBook-Pro.local

Timers On : Mon Mar 23 10:07:57 2015
Timers Off: Mon Mar 23 10:07:57 2015

Wall Time:        0.00 seconds

JK: (A|mn)  :       0.00u       0.00s       0.00w      1 call
JK: (A|Q)^-1/2:       0.02u       0.00s       0.00w      1 call
JK: (Q|mn)  :       0.00u       0.00s       0.00w      1 call
Form H      :       0.00u       0.00s       0.00w      1 call
Form S/X    :       0.00u       0.00s       0.00w      1 call
Guess       :       0.00u       0.00s       0.00w      1 call
Form G      :       0.00u       0.00s       0.00w     13 calls
JK: D       :       0.00u       0.00s       0.00w     13 calls
JK: USO2AO  :       0.00u       0.00s       0.00w      8 calls
JK: JK      :       0.00u       0.00s       0.00w     13 calls
JK: J       :       0.00u       0.00s       0.00w      8 calls
JK: J1      :       0.00u       0.00s       0.00w      8 calls
JK: J2      :       0.00u       0.00s       0.00w      8 calls
JK: K       :       0.00u       0.00s       0.00w      8 calls
JK: K1      :       0.00u       0.00s       0.00w      8 calls
JK: K2      :       0.00u       0.00s       0.00w      8 calls
JK: AO2USO  :       0.00u       0.00s       0.00w      8 calls
Form F      :       0.00u       0.00s       0.00w     13 calls
DIIS        :       0.00u       0.00s       0.00w     13 calls
DIISManager::add_entry:       0.00u       0.00s       0.00w     13 calls
Form C      :       0.00u       0.00s       0.00w     13 calls
Form D      :       0.00u       0.00s       0.00w     13 calls
DIISManager::extrapolate:       0.00u       0.00s       0.00w     12 calls
DIISManager::extrapolate: bMatrix setup:       0.00u       0.00s       0.00w     12 calls
DIISManager::extrapolate: bMatrix pseudoinverse:       0.00u       0.00s       0.00w     12 calls
DIISManager::extrapolate: form new data:       0.00u       0.00s       0.00w     12 calls

***********************************************************

Host: Jeffs-MacBook-Pro.local

Timers On : Mon Mar 23 10:10:50 2015
Timers Off: Mon Mar 23 10:10:51 2015

Wall Time:        1.00 seconds

JK: (A|mn)  :       0.00u       0.00s       0.00w      1 call
JK: (A|Q)^-1/2:       0.02u       0.00s       0.00w      1 call
JK: (Q|mn)  :       0.00u       0.00s       0.00w      1 call
Form H      :       0.00u       0.00s       0.00w      1 call
Form S/X    :       0.00u       0.00s       0.00w      1 call
Guess       :       0.00u       0.00s       0.00w      1 call
Form G      :       0.00u       0.00s       0.00w     13 calls
JK: D       :       0.00u       0.00s       0.00w     13 calls
JK: USO2AO  :       0.00u       0.00s       0.00w      8 calls
JK: JK      :       0.00u       0.00s       0.00w     13 calls
JK: J       :       0.00u       0.00s       0.00w      8 calls
JK: J1      :       0.00u       0.00s       0.00w      8 calls
JK: J2      :       0.00u       0.00s       0.00w      8 calls
JK: K       :       0.00u       0.00s       0.00w      8 calls
JK: K1      :       0.00u       0.00s       0.00w      8 calls
JK: K2      :       0.00u       0.00s       0.00w      8 calls
JK: AO2USO  :       0.00u       0.00s       0.00w      8 calls
Form F      :       0.00u       0.00s       0.00w     13 calls
DIIS        :       0.00u       0.00s       0.00w     13 calls
DIISManager::add_entry:       0.00u       0.00s       0.00w     13 calls
Form C      :       0.00u       0.00s       0.00w     13 calls
Form D      :       0.00u       0.00s       0.00w     13 calls
DIISManager::extrapolate:       0.00u       0.00s       0.00w     12 calls
DIISManager::extrapolate: bMatrix setup:       0.00u       0.00s       0.00w     12 calls
DIISManager::extrapolate: bMatrix pseudoinverse:       0.00u       0.00s       0.00w     12 calls
DIISManager::extrapolate: form new data:       0.00u       0.00s       0.00w     12 calls

***********************************************************

Host: Jeffs-MacBook-Pro.local

Timers On : Mon Mar 23 10:11:08 2015
Timers Off: Mon Mar 23 10:11:09 2015

Wall Time:        1.00 seconds

JK: (A|mn)  :       0.00u       0.00s       0.00w      1 call
JK: (A|Q)^-1/2:       0.02u       0.00s       0.00w      1 call
JK: (Q|mn)  :       0.00u       0.00s       0.00w      1 call
Form H      :       0.00u       0.07s       0.00w      1 call
Form S/X    :       0.00u       0.00s       0.00w      1 call
Guess       :       0.00u       0.00s       0.00w      1 call
Form G      :       0.00u       0.08s       0.00w     13 calls
JK: D       :       0.00u       0.00s       0.00w     13 calls
JK: USO2AO  :       0.00u       0.00s       0.00w      8 calls
JK: JK      :       0.00u       0.08s       0.00w     13 calls
JK: J       :       0.00u       0.00s       0.00w      8 calls
JK: J1      :       0.00u       0.00s       0.00w      8 calls
JK: J2      :       0.00u       0.00s       0.00w      8 calls
JK: K       :       0.00u       0.00s       0.00w      8 calls
JK: K1      :       0.00u       0.00s       0.00w      8 calls
JK: K2      :       0.00u       0.00s       0.00w      8 calls
JK: AO2USO  :       0.00u       0.00s       0.00w      8 calls
Form F      :       0.00u       0.00s       0.00w     13 calls
DIIS        :       0.00u       0.00s       0.00w     13 calls
DIISManager::add_entry:       0.00u       0.00s       0.00w     13 calls
Form C      :       0.02u       0.00s       0.00w     13 calls
Form D      :       0.00u       0.00s       0.00w     13 calls
DIISManager::extrapolate:       0.00u       0.00s       0.00w     12 calls
DIISManager::extrapolate: bMatrix setup:       0.00u       0.00s       0.00w     12 calls
DIISManager::extrapolate: bMatrix pseudoinverse:       0.00u       0.00s       0.00w     12 calls
DIISManager::extrapolate: form new data:       0.00u       0.00s       0.00w     12 calls

***********************************************************

Host: Jeffs-MacBook-Pro.local

Timers On : Mon Mar 23 10:11:17 2015
Timers Off: Mon Mar 23 10:11:17 2015

Wall Time:        0.00 seconds

JK: (A|mn)  :       0.02u       0.00s       0.00w      1 call
JK: (A|Q)^-1/2:       0.02u       0.00s       0.00w      1 call
JK: (Q|mn)  :       0.00u       0.00s       0.00w      1 call
Form H      :       0.00u       0.00s       0.00w      1 call
Form S/X    :       0.00u       0.00s       0.00w      1 call
Guess       :       0.00u       0.00s       0.00w      1 call
Form G      :       0.00u       0.00s       0.00w     13 calls
JK: D       :       0.00u       0.00s       0.00w     13 calls
JK: USO2AO  :       0.00u       0.00s       0.00w      8 calls
JK: JK      :       0.00u       0.00s       0.00w     13 calls
JK: J       :       0.00u       0.00s       0.00w      8 calls
JK: J1      :       0.00u       0.00s       0.00w      8 calls
JK: J2      :       0.00u       0.00s       0.00w      8 calls
JK: K       :       0.00u       0.00s       0.00w      8 calls
JK: K1      :       0.00u       0.00s       0.00w      8 calls
JK: K2      :       0.00u       0.00s       0.00w      8 calls
JK: AO2USO  :       0.00u       0.00s       0.00w      8 calls
Form F      :       0.00u       0.00s       0.00w     13 calls
DIIS        :       0.00u       0.00s       0.00w     13 calls
DIISManager::add_entry:       0.00u       0.00s       0.00w     13 calls
Form C      :       0.00u       0.00s       0.00w     13 calls
Form D      :       0.00u       0.00s       0.00w     13 calls
DIISManager::extrapolate:       0.00u       0.00s       0.00w     12 calls
DIISManager::extrapolate: bMatrix setup:       0.00u       0.00s       0.00w     12 calls
DIISManager::extrapolate: bMatrix pseudoinverse:       0.00u       0.00s       0.00w     12 calls
DIISManager::extrapolate: form new data:       0.00u       0.00s       0.00w     12 calls

***********************************************************

Host: Jeffs-MacBook-Pro.local

Timers On : Mon Mar 23 10:12:39 2015
Timers Off: Mon Mar 23 10:12:39 2015

Wall Time:        0.00 seconds

JK: (A|mn)  :       0.00u       0.00s       0.00w      1 call
JK: (A|Q)^-1/2:       0.02u       0.00s       0.00w      1 call
JK: (Q|mn)  :       0.00u       0.00s       0.00w      1 call
Form H      :       0.00u       0.00s       0.00w      1 call
Form S/X    :       0.00u       0.00s       0.00w      1 call
Guess       :       0.00u       0.00s       0.00w      1 call
Form G      :       0.00u       0.00s       0.00w     13 calls
JK: D       :       0.00u       0.00s       0.00w     13 calls
JK: USO2AO  :       0.00u       0.00s       0.00w      8 calls
JK: JK      :       0.00u       0.00s       0.00w     13 calls
JK: J       :       0.00u       0.00s       0.00w      8 calls
JK: J1      :       0.00u       0.00s       0.00w      8 calls
JK: J2      :       0.00u       0.00s       0.00w      8 calls
JK: K       :       0.00u       0.00s       0.00w      8 calls
JK: K1      :       0.00u       0.00s       0.00w      8 calls
JK: K2      :       0.00u       0.00s       0.00w      8 calls
JK: AO2USO  :       0.00u       0.00s       0.00w      8 calls
Form F      :       0.00u       0.00s       0.00w     13 calls
DIIS        :       0.00u       0.00s       0.00w     13 calls
DIISManager::add_entry:       0.00u       0.00s       0.00w     13 calls
Form C      :       0.00u       0.00s       0.00w     13 calls
Form D      :       0.00u       0.00s       0.00w     13 calls
DIISManager::extrapolate:       0.00u       0.00s       0.00w     12 calls
DIISManager::extrapolate: bMatrix setup:       0.00u       0.00s       0.00w     12 calls
DIISManager::extrapolate: bMatrix pseudoinverse:       0.00u       0.00s       0.00w     12 calls
DIISManager::extrapolate: form new data:       0.00u       0.00s       0.00w     12 calls

***********************************************************

Host: Jeffs-MacBook-Pro.local

Timers On : Mon Mar 23 10:12:47 2015
Timers Off: Mon Mar 23 10:12:47 2015

Wall Time:        0.00 seconds

JK: (A|mn)  :       0.00u       0.00s       0.00w      1 call
JK: (A|Q)^-1/2:       0.03u       0.00s       0.00w      1 call
JK: (Q|mn)  :       0.00u       0.00s       0.00w      1 call
Form H      :       0.00u       0.00s       0.00w      1 call
Form S/X    :       0.00u       0.00s       0.00w      1 call
Guess       :       0.00u       0.00s       0.00w      1 call
Form G      :       0.00u       0.00s       0.00w     13 calls
JK: D       :       0.00u       0.00s       0.00w     13 calls
JK: USO2AO  :       0.00u       0.00s       0.00w      8 calls
JK: JK      :       0.00u       0.00s       0.00w     13 calls
JK: J       :       0.00u       0.00s       0.00w      8 calls
JK: J1      :       0.00u       0.00s       0.00w      8 calls
JK: J2      :       0.00u       0.00s       0.00w      8 calls
JK: K       :       0.00u       0.00s       0.00w      8 calls
JK: K1      :       0.00u       0.00s       0.00w      8 calls
JK: K2      :       0.00u       0.00s       0.00w      8 calls
JK: AO2USO  :       0.00u       0.00s       0.00w      8 calls
Form F      :       0.00u       0.00s       0.00w     13 calls
DIIS        :       0.00u       0.00s       0.00w     13 calls
DIISManager::add_entry:       0.00u       0.00s       0.00w     13 calls
Form C      :       0.00u       0.00s       0.00w     13 calls
Form D      :       0.00u       0.00s       0.00w     13 calls
DIISManager::extrapolate:       0.00u       0.00s       0.00w     12 calls
DIISManager::extrapolate: bMatrix setup:       0.00u       0.00s       0.00w     12 calls
DIISManager::extrapolate: bMatrix pseudoinverse:       0.00u       0.00s       0.00w     12 calls
DIISManager::extrapolate: form new data:       0.00u       0.00s       0.00w     12 calls

***********************************************************

Host: Jeffs-MacBook-Pro.local

Timers On : Mon Mar 23 10:16:46 2015
Timers Off: Mon Mar 23 10:16:47 2015

Wall Time:        1.00 seconds

JK: (A|mn)  :       0.00u       0.00s       0.00w      1 call
JK: (A|Q)^-1/2:       0.02u       0.00s       0.00w      1 call
JK: (Q|mn)  :       0.00u       0.00s       0.00w      1 call
Form H      :       0.00u       0.00s       0.00w      1 call
Form S/X    :       0.00u       0.00s       0.00w      1 call
Guess       :       0.00u       0.00s       0.00w      1 call
Form G      :       0.00u       0.07s       0.00w     13 calls
JK: D       :       0.00u       0.00s       0.00w     13 calls
JK: USO2AO  :       0.00u       0.00s       0.00w      8 calls
JK: JK      :       0.00u       0.07s       0.00w     13 calls
JK: J       :       0.00u       0.00s       0.00w      8 calls
JK: J1      :       0.00u       0.00s       0.00w      8 calls
JK: J2      :       0.00u       0.00s       0.00w      8 calls
JK: K       :       0.00u       0.00s       0.00w      8 calls
JK: K1      :       0.00u       0.00s       0.00w      8 calls
JK: K2      :       0.00u       0.00s       0.00w      8 calls
JK: AO2USO  :       0.00u       0.00s       0.00w      8 calls
Form F      :       0.00u       0.00s       0.00w     13 calls
DIIS        :       0.02u       0.02s       0.00w     13 calls
DIISManager::add_entry:       0.00u       0.02s       0.00w     13 calls
Form C      :       0.00u       0.00s       0.00w     13 calls
Form D      :       0.00u       0.00s       0.00w     13 calls
DIISManager::extrapolate:       0.00u       0.00s       0.00w     12 calls
DIISManager::extrapolate: bMatrix setup:       0.00u       0.00s       0.00w     12 calls
DIISManager::extrapolate: bMatrix pseudoinverse:       0.00u       0.00s       0.00w     12 calls
DIISManager::extrapolate: form new data:       0.00u       0.00s       0.00w     12 calls

***********************************************************

Host: Jeffs-MacBook-Pro.local

Timers On : Mon Mar 23 10:17:37 2015
Timers Off: Mon Mar 23 10:17:37 2015

Wall Time:        0.00 seconds

JK: (A|mn)  :       0.00u       0.00s       0.00w      1 call
JK: (A|Q)^-1/2:       0.03u       0.00s       0.00w      1 call
JK: (Q|mn)  :       0.00u       0.00s       0.00w      1 call
Form H      :       0.00u       0.00s       0.00w      1 call
Form S/X    :       0.00u       0.00s       0.00w      1 call
Guess       :       0.00u       0.00s       0.00w      1 call
Form G      :       0.00u       0.00s       0.00w     13 calls
JK: D       :       0.00u       0.00s       0.00w     13 calls
JK: USO2AO  :       0.00u       0.00s       0.00w      8 calls
JK: JK      :       0.00u       0.00s       0.00w     13 calls
JK: J       :       0.00u       0.00s       0.00w      8 calls
JK: J1      :       0.00u       0.00s       0.00w      8 calls
JK: J2      :       0.00u       0.00s       0.00w      8 calls
JK: K       :       0.00u       0.00s       0.00w      8 calls
JK: K1      :       0.00u       0.00s       0.00w      8 calls
JK: K2      :       0.00u       0.00s       0.00w      8 calls
JK: AO2USO  :       0.00u       0.00s       0.00w      8 calls
Form F      :       0.00u       0.00s       0.00w     13 calls
DIIS        :       0.00u       0.00s       0.00w     13 calls
DIISManager::add_entry:       0.00u       0.00s       0.00w     13 calls
Form C      :       0.00u       0.00s       0.00w     13 calls
Form D      :       0.00u       0.00s       0.00w     13 calls
DIISManager::extrapolate:       0.00u       0.00s       0.00w     12 calls
DIISManager::extrapolate: bMatrix setup:       0.00u       0.00s       0.00w     12 calls
DIISManager::extrapolate: bMatrix pseudoinverse:       0.00u       0.00s       0.00w     12 calls
DIISManager::extrapolate: form new data:       0.00u       0.00s       0.00w     12 calls

***********************************************************

Host: Jeffs-MacBook-Pro.local

Timers On : Mon Mar 23 10:19:44 2015
Timers Off: Mon Mar 23 10:19:44 2015

Wall Time:        0.00 seconds

JK: (A|mn)  :       0.02u       0.00s       0.00w      1 call
JK: (A|Q)^-1/2:       0.02u       0.00s       0.00w      1 call
JK: (Q|mn)  :       0.00u       0.00s       0.00w      1 call
Form H      :       0.00u       0.00s       0.00w      1 call
Form S/X    :       0.00u       0.00s       0.00w      1 call
Guess       :       0.00u       0.00s       0.00w      1 call
Form G      :       0.00u       0.00s       0.00w     13 calls
JK: D       :       0.00u       0.00s       0.00w     13 calls
JK: USO2AO  :       0.00u       0.00s       0.00w      8 calls
JK: JK      :       0.00u       0.00s       0.00w     13 calls
JK: J       :       0.00u       0.00s       0.00w      8 calls
JK: J1      :       0.00u       0.00s       0.00w      8 calls
JK: J2      :       0.00u       0.00s       0.00w      8 calls
JK: K       :       0.00u       0.00s       0.00w      8 calls
JK: K1      :       0.00u       0.00s       0.00w      8 calls
JK: K2      :       0.00u       0.00s       0.00w      8 calls
JK: AO2USO  :       0.00u       0.00s       0.00w      8 calls
Form F      :       0.00u       0.00s       0.00w     13 calls
DIIS        :       0.00u       0.00s       0.00w     13 calls
DIISManager::add_entry:       0.00u       0.00s       0.00w     13 calls
Form C      :       0.00u       0.00s       0.00w     13 calls
Form D      :       0.00u       0.00s       0.00w     13 calls
DIISManager::extrapolate:       0.00u       0.00s       0.00w     12 calls
DIISManager::extrapolate: bMatrix setup:       0.00u       0.00s       0.00w     12 calls
DIISManager::extrapolate: bMatrix pseudoinverse:       0.00u       0.00s       0.00w     12 calls
DIISManager::extrapolate: form new data:       0.00u       0.00s       0.00w     12 calls

***********************************************************

Host: Jeffs-MacBook-Pro.local

Timers On : Mon Mar 23 10:22:24 2015
Timers Off: Mon Mar 23 10:22:24 2015

Wall Time:        0.00 seconds

JK: (A|mn)  :       0.00u       0.00s       0.00w      1 call
JK: (A|Q)^-1/2:       0.03u       0.00s       0.00w      1 call
JK: (Q|mn)  :       0.00u       0.00s       0.00w      1 call
Form H      :       0.00u       0.00s       0.00w      1 call
Form S/X    :       0.00u       0.00s       0.00w      1 call
Guess       :       0.00u       0.00s       0.00w      1 call
Form G      :       0.00u       0.00s       0.00w     13 calls
JK: D       :       0.00u       0.00s       0.00w     13 calls
JK: USO2AO  :       0.00u       0.00s       0.00w      8 calls
JK: JK      :       0.00u       0.00s       0.00w     13 calls
JK: J       :       0.00u       0.00s       0.00w      8 calls
JK: J1      :       0.00u       0.00s       0.00w      8 calls
JK: J2      :       0.00u       0.00s       0.00w      8 calls
JK: K       :       0.00u       0.00s       0.00w      8 calls
JK: K1      :       0.00u       0.00s       0.00w      8 calls
JK: K2      :       0.00u       0.00s       0.00w      8 calls
JK: AO2USO  :       0.00u       0.00s       0.00w      8 calls
Form F      :       0.00u       0.00s       0.00w     13 calls
DIIS        :       0.00u       0.00s       0.00w     13 calls
DIISManager::add_entry:       0.00u       0.00s       0.00w     13 calls
Form C      :       0.00u       0.00s       0.00w     13 calls
Form D      :       0.00u       0.00s       0.00w     13 calls
DIISManager::extrapolate:       0.00u       0.00s       0.00w     12 calls
DIISManager::extrapolate: bMatrix setup:       0.00u       0.00s       0.00w     12 calls
DIISManager::extrapolate: bMatrix pseudoinverse:       0.00u       0.00s       0.00w     12 calls
DIISManager::extrapolate: form new data:       0.00u       0.00s       0.00w     12 calls

***********************************************************

Host: Jeffs-MacBook-Pro.local

Timers On : Mon Mar 23 10:25:29 2015
Timers Off: Mon Mar 23 10:25:30 2015

Wall Time:        1.00 seconds

JK: (A|mn)  :       0.00u       0.00s       0.00w      1 call
JK: (A|Q)^-1/2:       0.02u       0.00s       1.00w      1 call
JK: (Q|mn)  :       0.00u       0.00s       0.00w      1 call
Form H      :       0.00u       0.00s       0.00w      1 call
Form S/X    :       0.00u       0.00s       0.00w      1 call
Guess       :       0.00u       0.00s       0.00w      1 call
Form G      :       0.00u       0.00s       0.00w     13 calls
JK: D       :       0.00u       0.00s       0.00w     13 calls
JK: USO2AO  :       0.00u       0.00s       0.00w      8 calls
JK: JK      :       0.00u       0.00s       0.00w     13 calls
JK: J       :       0.00u       0.00s       0.00w      8 calls
JK: J1      :       0.00u       0.00s       0.00w      8 calls
JK: J2      :       0.00u       0.00s       0.00w      8 calls
JK: K       :       0.00u       0.00s       0.00w      8 calls
JK: K1      :       0.00u       0.00s       0.00w      8 calls
JK: K2      :       0.00u       0.00s       0.00w      8 calls
JK: AO2USO  :       0.00u       0.00s       0.00w      8 calls
Form F      :       0.00u       0.00s       0.00w     13 calls
DIIS        :       0.00u       0.00s       0.00w     13 calls
DIISManager::add_entry:       0.00u       0.00s       0.00w     13 calls
Form C      :       0.00u       0.00s       0.00w     13 calls
Form D      :       0.00u       0.00s       0.00w     13 calls
DIISManager::extrapolate:       0.00u       0.00s       0.00w     12 calls
DIISManager::extrapolate: bMatrix setup:       0.00u       0.00s       0.00w     12 calls
DIISManager::extrapolate: bMatrix pseudoinverse:       0.00u       0.00s       0.00w     12 calls
DIISManager::extrapolate: form new data:       0.00u       0.00s       0.00w     12 calls

***********************************************************

Host: Jeffs-MacBook-Pro.local

Timers On : Mon Mar 23 11:46:19 2015
Timers Off: Mon Mar 23 11:46:19 2015

Wall Time:        0.00 seconds

JK: (A|mn)  :       0.00u       0.00s       0.00w      1 call
JK: (A|Q)^-1/2:       0.02u       0.00s       0.00w      1 call
JK: (Q|mn)  :       0.00u       0.00s       0.00w      1 call
Form H      :       0.00u       0.00s       0.00w      1 call
Form S/X    :       0.00u       0.00s       0.00w      1 call
Guess       :       0.00u       0.00s       0.00w      1 call
Form G      :       0.00u       0.02s       0.00w     13 calls
JK: D       :       0.00u       0.00s       0.00w     13 calls
JK: USO2AO  :       0.00u       0.00s       0.00w      8 calls
JK: JK      :       0.00u       0.02s       0.00w     13 calls
JK: J       :       0.00u       0.00s       0.00w      8 calls
JK: J1      :       0.00u       0.00s       0.00w      8 calls
JK: J2      :       0.00u       0.00s       0.00w      8 calls
JK: K       :       0.00u       0.00s       0.00w      8 calls
JK: K1      :       0.00u       0.00s       0.00w      8 calls
JK: K2      :       0.00u       0.00s       0.00w      8 calls
JK: AO2USO  :       0.00u       0.00s       0.00w      8 calls
Form F      :       0.00u       0.00s       0.00w     13 calls
DIIS        :       0.00u       0.00s       0.00w     13 calls
DIISManager::add_entry:       0.00u       0.00s       0.00w     13 calls
Form C      :       0.00u       0.00s       0.00w     13 calls
Form D      :       0.00u       0.00s       0.00w     13 calls
DIISManager::extrapolate:       0.00u       0.00s       0.00w     12 calls
DIISManager::extrapolate: bMatrix setup:       0.00u       0.00s       0.00w     12 calls
DIISManager::extrapolate: bMatrix pseudoinverse:       0.00u       0.00s       0.00w     12 calls
DIISManager::extrapolate: form new data:       0.00u       0.00s       0.00w     12 calls

***********************************************************

Host: Jeffs-MacBook-Pro.local

Timers On : Mon Mar 23 11:46:59 2015
Timers Off: Mon Mar 23 11:47:00 2015

Wall Time:        1.00 seconds

JK: (A|mn)  :       0.00u       0.00s       0.00w      1 call
JK: (A|Q)^-1/2:       0.02u       0.00s       0.00w      1 call
JK: (Q|mn)  :       0.00u       0.00s       0.00w      1 call
Form H      :       0.00u       0.00s       0.00w      1 call
Form S/X    :       0.00u       0.00s       0.00w      1 call
Guess       :       0.00u       0.00s       0.00w      1 call
Form G      :       0.00u       0.00s       0.00w     13 calls
JK: D       :       0.00u       0.00s       0.00w     13 calls
JK: USO2AO  :       0.00u       0.00s       0.00w      8 calls
JK: JK      :       0.00u       0.00s       0.00w     13 calls
JK: J       :       0.00u       0.00s       0.00w      8 calls
JK: J1      :       0.00u       0.00s       0.00w      8 calls
JK: J2      :       0.00u       0.00s       0.00w      8 calls
JK: K       :       0.00u       0.00s       0.00w      8 calls
JK: K1      :       0.00u       0.00s       0.00w      8 calls
JK: K2      :       0.00u       0.00s       0.00w      8 calls
JK: AO2USO  :       0.00u       0.00s       0.00w      8 calls
Form F      :       0.00u       0.00s       0.00w     13 calls
DIIS        :       0.00u       0.00s       0.00w     13 calls
DIISManager::add_entry:       0.00u       0.00s       0.00w     13 calls
Form C      :       0.00u       0.00s       0.00w     13 calls
Form D      :       0.00u       0.00s       0.00w     13 calls
DIISManager::extrapolate:       0.00u       0.00s       0.00w     12 calls
DIISManager::extrapolate: bMatrix setup:       0.00u       0.00s       0.00w     12 calls
DIISManager::extrapolate: bMatrix pseudoinverse:       0.00u       0.00s       0.00w     12 calls
DIISManager::extrapolate: form new data:       0.00u       0.00s       0.00w     12 calls

***********************************************************

Host: Jeffs-MacBook-Pro.local

Timers On : Mon Mar 23 11:47:13 2015
Timers Off: Mon Mar 23 11:47:14 2015

Wall Time:        1.00 seconds

JK: (A|mn)  :       0.00u       0.00s       0.00w      1 call
JK: (A|Q)^-1/2:       0.02u       0.00s       0.00w      1 call
JK: (Q|mn)  :       0.00u       0.00s       0.00w      1 call
Form H      :       0.00u       0.00s       0.00w      1 call
Form S/X    :       0.00u       0.00s       0.00w      1 call
Guess       :       0.00u       0.00s       0.00w      1 call
Form G      :       0.00u       0.00s       0.00w     13 calls
JK: D       :       0.00u       0.00s       0.00w     13 calls
JK: USO2AO  :       0.00u       0.00s       0.00w      8 calls
JK: JK      :       0.00u       0.00s       0.00w     13 calls
JK: J       :       0.00u       0.00s       0.00w      8 calls
JK: J1      :       0.00u       0.00s       0.00w      8 calls
JK: J2      :       0.00u       0.00s       0.00w      8 calls
JK: K       :       0.00u       0.00s       0.00w      8 calls
JK: K1      :       0.00u       0.00s       0.00w      8 calls
JK: K2      :       0.00u       0.00s       0.00w      8 calls
JK: AO2USO  :       0.00u       0.00s       0.00w      8 calls
Form F      :       0.00u       0.00s       0.00w     13 calls
DIIS        :       0.02u       0.00s       0.00w     13 calls
DIISManager::add_entry:       0.02u       0.00s       0.00w     13 calls
Form C      :       0.00u       0.00s       0.00w     13 calls
Form D      :       0.00u       0.00s       0.00w     13 calls
DIISManager::extrapolate:       0.00u       0.00s       0.00w     12 calls
DIISManager::extrapolate: bMatrix setup:       0.00u       0.00s       0.00w     12 calls
DIISManager::extrapolate: bMatrix pseudoinverse:       0.00u       0.00s       0.00w     12 calls
DIISManager::extrapolate: form new data:       0.00u       0.00s       0.00w     12 calls

***********************************************************

Host: Jeffs-MacBook-Pro.local

Timers On : Mon Mar 23 11:47:49 2015
Timers Off: Mon Mar 23 11:47:49 2015

Wall Time:        0.00 seconds

JK: (A|mn)  :       0.00u       0.00s       0.00w      1 call
JK: (A|Q)^-1/2:       0.03u       0.00s       0.00w      1 call
JK: (Q|mn)  :       0.00u       0.00s       0.00w      1 call
Form H      :       0.00u       0.00s       0.00w      1 call
Form S/X    :       0.00u       0.00s       0.00w      1 call
Guess       :       0.00u       0.00s       0.00w      1 call
Form G      :       0.00u       0.00s       0.00w     13 calls
JK: D       :       0.00u       0.00s       0.00w     13 calls
JK: USO2AO  :       0.00u       0.00s       0.00w      8 calls
JK: JK      :       0.00u       0.00s       0.00w     13 calls
JK: J       :       0.00u       0.00s       0.00w      8 calls
JK: J1      :       0.00u       0.00s       0.00w      8 calls
JK: J2      :       0.00u       0.00s       0.00w      8 calls
JK: K       :       0.00u       0.00s       0.00w      8 calls
JK: K1      :       0.00u       0.00s       0.00w      8 calls
JK: K2      :       0.00u       0.00s       0.00w      8 calls
JK: AO2USO  :       0.00u       0.00s       0.00w      8 calls
Form F      :       0.00u       0.00s       0.00w     13 calls
DIIS        :       0.00u       0.00s       0.00w     13 calls
DIISManager::add_entry:       0.00u       0.00s       0.00w     13 calls
Form C      :       0.00u       0.00s       0.00w     13 calls
Form D      :       0.00u       0.00s       0.00w     13 calls
DIISManager::extrapolate:       0.00u       0.00s       0.00w     12 calls
DIISManager::extrapolate: bMatrix setup:       0.00u       0.00s       0.00w     12 calls
DIISManager::extrapolate: bMatrix pseudoinverse:       0.00u       0.00s       0.00w     12 calls
DIISManager::extrapolate: form new data:       0.00u       0.00s       0.00w     12 calls

***********************************************************

Host: Jeffs-MacBook-Pro.local

Timers On : Mon Mar 23 11:47:55 2015
Timers Off: Mon Mar 23 11:47:55 2015

Wall Time:        0.00 seconds

JK: (A|mn)  :       0.00u       0.00s       0.00w      1 call
JK: (A|Q)^-1/2:       0.02u       0.00s       0.00w      1 call
JK: (Q|mn)  :       0.00u       0.00s       0.00w      1 call
Form H      :       0.00u       0.00s       0.00w      1 call
Form S/X    :       0.00u       0.00s       0.00w      1 call
Guess       :       0.00u       0.00s       0.00w      1 call
Form G      :       0.00u       0.00s       0.00w     13 calls
JK: D       :       0.00u       0.00s       0.00w     13 calls
JK: USO2AO  :       0.00u       0.00s       0.00w      8 calls
JK: JK      :       0.00u       0.00s       0.00w     13 calls
JK: J       :       0.00u       0.00s       0.00w      8 calls
JK: J1      :       0.00u       0.00s       0.00w      8 calls
JK: J2      :       0.00u       0.00s       0.00w      8 calls
JK: K       :       0.00u       0.00s       0.00w      8 calls
JK: K1      :       0.00u       0.00s       0.00w      8 calls
JK: K2      :       0.00u       0.00s       0.00w      8 calls
JK: AO2USO  :       0.00u       0.00s       0.00w      8 calls
Form F      :       0.00u       0.00s       0.00w     13 calls
DIIS        :       0.00u       0.00s       0.00w     13 calls
DIISManager::add_entry:       0.00u       0.00s       0.00w     13 calls
Form C      :       0.00u       0.00s       0.00w     13 calls
Form D      :       0.00u       0.00s       0.00w     13 calls
DIISManager::extrapolate:       0.00u       0.00s       0.00w     12 calls
DIISManager::extrapolate: bMatrix setup:       0.00u       0.00s       0.00w     12 calls
DIISManager::extrapolate: bMatrix pseudoinverse:       0.00u       0.00s       0.00w     12 calls
DIISManager::extrapolate: form new data:       0.00u       0.00s       0.00w     12 calls

***********************************************************

Host: Jeffs-MacBook-Pro.local

Timers On : Mon Mar 23 11:52:39 2015
Timers Off: Mon Mar 23 11:52:39 2015

Wall Time:        0.00 seconds

JK: (A|mn)  :       0.02u       0.00s       0.00w      1 call
JK: (A|Q)^-1/2:       0.02u       0.00s       0.00w      1 call
JK: (Q|mn)  :       0.00u       0.00s       0.00w      1 call
Form H      :       0.00u       0.00s       0.00w      1 call
Form S/X    :       0.00u       0.00s       0.00w      1 call
Guess       :       0.00u       0.00s       0.00w      1 call
Form G      :       0.00u       0.02s       0.00w     13 calls
JK: D       :       0.00u       0.00s       0.00w     13 calls
JK: USO2AO  :       0.00u       0.00s       0.00w      8 calls
JK: JK      :       0.00u       0.02s       0.00w     13 calls
JK: J       :       0.00u       0.00s       0.00w      8 calls
JK: J1      :       0.00u       0.00s       0.00w      8 calls
JK: J2      :       0.00u       0.00s       0.00w      8 calls
JK: K       :       0.00u       0.00s       0.00w      8 calls
JK: K1      :       0.00u       0.00s       0.00w      8 calls
JK: K2      :       0.00u       0.00s       0.00w      8 calls
JK: AO2USO  :       0.00u       0.00s       0.00w      8 calls
Form F      :       0.00u       0.00s       0.00w     13 calls
DIIS        :       0.00u       0.00s       0.00w     13 calls
DIISManager::add_entry:       0.00u       0.00s       0.00w     13 calls
Form C      :       0.00u       0.00s       0.00w     13 calls
Form D      :       0.00u       0.00s       0.00w     13 calls
DIISManager::extrapolate:       0.00u       0.00s       0.00w     12 calls
DIISManager::extrapolate: bMatrix setup:       0.00u       0.00s       0.00w     12 calls
DIISManager::extrapolate: bMatrix pseudoinverse:       0.00u       0.00s       0.00w     12 calls
DIISManager::extrapolate: form new data:       0.00u       0.00s       0.00w     12 calls

***********************************************************

Host: Jeffs-MacBook-Pro.local

Timers On : Mon Mar 23 11:55:03 2015
Timers Off: Mon Mar 23 11:55:03 2015

Wall Time:        0.00 seconds

JK: (A|mn)  :       0.00u       0.00s       0.00w      1 call
[...]
JK: J       :       0.00u       0.00s       0.00w     26 calls
JK: J1      :       0.00u       0.00s       0.00w     26 calls
JK: J2      :       0.00u       0.00s       0.00w     26 calls
JK: K       :       0.00u       0.00s       0.00w     26 calls
JK: K1      :       0.00u       0.00s       0.00w     26 calls
JK: K2      :       0.00u       0.00s       0.00w     26 calls
JK: AO2USO  :       0.00u       0.00s       0.00w     26 calls
Form F      :       0.00u       0.00s       0.00w     36 calls
DIIS        :       0.02u       0.00s       0.00w     36 calls
DIISManager::add_entry:       0.00u       0.00s       0.00w     36 calls
Form C      :       0.00u       0.00s       0.00w     36 calls
Form D      :       0.00u       0.00s       0.00w     36 calls
DIISManager::extrapolate:       0.02u       0.00s       0.00w     34 calls
DIISManager::extrapolate: bMatrix setup:       0.02u       0.00s       0.00w     34 calls
DIISManager::extrapolate: bMatrix pseudoinverse:       0.00u       0.00s       0.00w     34 calls
DIISManager::extrapolate: form new data:       0.00u       0.00s       0.00w     34 calls
presort     :       0.00u       0.00s       0.00w      1 call
RHF:1sthalf :       0.00u       0.00s       0.00w      1 call
RHF:midsort :       0.00u       0.00s       0.00w      1 call
RHF:2ndhalf :       0.02u       0.00s       0.00w      1 call

***********************************************************

Host: Jeffs-MacBook-Pro.local

Timers On : Mon Mar 23 15:42:10 2015
Timers Off: Mon Mar 23 15:42:16 2015

Wall Time:        6.00 seconds

JK: (A|mn)  :       0.00u       0.00s       0.00w      2 calls
JK: (A|Q)^-1/2:       0.07u       0.00s       0.00w      2 calls
JK: (Q|mn)  :       0.00u       0.00s       0.00w      2 calls
Form H      :       0.00u       0.00s       0.00w      2 calls
Form S/X    :       0.00u       0.00s       0.00w      2 calls
Guess       :       0.00u       0.00s       0.00w      2 calls
Form G      :       0.00u       0.00s       0.00w     36 calls
JK: D       :       0.00u       0.00s       0.00w     36 calls
JK: USO2AO  :       0.00u       0.00s       0.00w     26 calls
JK: JK      :       0.00u       0.00s       0.00w     36 calls
JK: J       :       0.00u       0.00s       0.00w     26 calls
JK: J1      :       0.00u       0.00s       0.00w     26 calls
JK: J2      :       0.00u       0.00s       0.00w     26 calls
JK: K       :       0.00u       0.00s       0.00w     26 calls
JK: K1      :       0.00u       0.00s       0.00w     26 calls
JK: K2      :       0.00u       0.00s       0.00w     26 calls
JK: AO2USO  :       0.00u       0.00s       0.00w     26 calls
Form F      :       0.00u       0.00s       0.00w     36 calls
DIIS        :       0.00u       0.00s       0.00w     36 calls
DIISManager::add_entry:       0.00u       0.00s       0.00w     36 calls
Form C      :       0.00u       0.00s       0.00w     36 calls
Form D      :       0.00u       0.00s       0.00w     36 calls
DIISManager::extrapolate:       0.00u       0.00s       0.00w     34 calls
DIISManager::extrapolate: bMatrix setup:       0.00u       0.00s       0.00w     34 calls
DIISManager::extrapolate: bMatrix pseudoinverse:       0.00u       0.00s       0.00w     34 calls
DIISManager::extrapolate: form new data:       0.00u       0.00s       0.00w     34 calls
presort     :       0.00u       0.00s       0.00w      1 call
RHF:1sthalf :       0.02u       0.00s       0.00w      1 call
RHF:midsort :       0.00u       0.00s       0.00w      1 call
RHF:2ndhalf :       0.00u       0.00s       0.00w      1 call

***********************************************************

Host: Jeffs-MacBook-Pro.local

Timers On : Mon Mar 23 15:43:15 2015
Timers Off: Mon Mar 23 15:43:19 2015

Wall Time:        4.00 seconds

JK: (A|mn)  :       0.00u       0.00s       0.00w      1 call
JK: (A|Q)^-1/2:       0.02u       0.00s       0.00w      1 call
JK: (Q|mn)  :       0.02u       0.00s       0.00w      1 call
Form H      :       0.00u       0.00s       0.00w      1 call
Form S/X    :       0.00u       0.00s       0.00w      1 call
Guess       :       0.00u       0.00s       0.00w      1 call
Form G      :       0.00u       0.00s       0.00w     18 calls
JK: D       :       0.00u       0.00s       0.00w     18 calls
JK: USO2AO  :       0.00u       0.00s       0.00w     13 calls
JK: JK      :       0.00u       0.00s       0.00w     18 calls
JK: J       :       0.00u       0.00s       0.00w     13 calls
JK: J1      :       0.00u       0.00s       0.00w     13 calls
JK: J2      :       0.00u       0.00s       0.00w     13 calls
JK: K       :       0.00u       0.00s       0.00w     13 calls
JK: K1      :       0.00u       0.00s       0.00w     13 calls
JK: K2      :       0.00u       0.00s       0.00w     13 calls
JK: AO2USO  :       0.00u       0.00s       0.00w     13 calls
Form F      :       0.00u       0.00s       0.00w     18 calls
DIIS        :       0.00u       0.00s       0.00w     18 calls
DIISManager::add_entry:       0.00u       0.00s       0.00w     18 calls
Form C      :       0.00u       0.00s       0.00w     18 calls
Form D      :       0.00u       0.00s       0.00w     18 calls
DIISManager::extrapolate:       0.00u       0.00s       0.00w     17 calls
DIISManager::extrapolate: bMatrix setup:       0.00u       0.00s       0.00w     17 calls
DIISManager::extrapolate: bMatrix pseudoinverse:       0.00u       0.00s       0.00w     17 calls
DIISManager::extrapolate: form new data:       0.00u       0.00s       0.00w     17 calls

***********************************************************

Host: Jeffs-MacBook-Pro.local

Timers On : Mon Mar 23 15:43:55 2015
Timers Off: Mon Mar 23 15:43:59 2015

Wall Time:        4.00 seconds

JK: (A|mn)  :       0.00u       0.00s       0.00w      1 call
JK: (A|Q)^-1/2:       0.03u       0.00s       0.00w      1 call
JK: (Q|mn)  :       0.00u       0.00s       0.00w      1 call
Form H      :       0.00u       0.00s       0.00w      1 call
Form S/X    :       0.00u       0.00s       0.00w      1 call
Guess       :       0.00u       0.00s       0.00w      1 call
Form G      :       0.00u       0.00s       0.00w     18 calls
JK: D       :       0.00u       0.00s       0.00w     18 calls
JK: USO2AO  :       0.00u       0.00s       0.00w     13 calls
JK: JK      :       0.00u       0.00s       0.00w     18 calls
JK: J       :       0.00u       0.00s       0.00w     13 calls
JK: J1      :       0.00u       0.00s       0.00w     13 calls
JK: J2      :       0.00u       0.00s       0.00w     13 calls
JK: K       :       0.00u       0.00s       0.00w     13 calls
JK: K1      :       0.00u       0.00s       0.00w     13 calls
JK: K2      :       0.00u       0.00s       0.00w     13 calls
JK: AO2USO  :       0.00u       0.00s       0.00w     13 calls
Form F      :       0.00u       0.00s       0.00w     18 calls
DIIS        :       0.00u       0.00s       0.00w     18 calls
DIISManager::add_entry:       0.00u       0.00s       0.00w     18 calls
Form C      :       0.00u       0.00s       0.00w     18 calls
Form D      :       0.00u       0.00s       0.00w     18 calls
DIISManager::extrapolate:       0.00u       0.00s       0.00w     17 calls
DIISManager::extrapolate: bMatrix setup:       0.00u       0.00s       0.00w     17 calls
DIISManager::extrapolate: bMatrix pseudoinverse:       0.00u       0.00s       0.00w     17 calls
DIISManager::extrapolate: form new data:       0.00u       0.00s       0.00w     17 calls

***********************************************************

Host: Jeffs-MacBook-Pro.local

Timers On : Mon Mar 23 15:44:25 2015
Timers Off: Mon Mar 23 15:44:29 2015

Wall Time:        4.00 seconds

JK: (A|mn)  :       0.00u       0.00s       0.00w      1 call
JK: (A|Q)^-1/2:       0.03u       0.00s       0.00w      1 call
JK: (Q|mn)  :       0.00u       0.00s       0.00w      1 call
Form H      :       0.00u       0.00s       0.00w      1 call
Form S/X    :       0.00u       0.00s       0.00w      1 call
Guess       :       0.00u       0.00s       0.00w      1 call
Form G      :       0.00u       0.00s       0.00w     18 calls
JK: D       :       0.00u       0.00s       0.00w     18 calls
JK: USO2AO  :       0.00u       0.00s       0.00w     13 calls
JK: JK      :       0.00u       0.00s       0.00w     18 calls
JK: J       :       0.00u       0.00s       0.00w     13 calls
JK: J1      :       0.00u       0.00s       0.00w     13 calls
JK: J2      :       0.00u       0.00s       0.00w     13 calls
JK: K       :       0.00u       0.00s       0.00w     13 calls
JK: K1      :       0.00u       0.00s       0.00w     13 calls
JK: K2      :       0.00u       0.00s       0.00w     13 calls
JK: AO2USO  :       0.00u       0.00s       0.00w     13 calls
Form F      :       0.00u       0.00s       0.00w     18 calls
DIIS        :       0.00u       0.00s       0.00w     18 calls
DIISManager::add_entry:       0.00u       0.00s       0.00w     18 calls
Form C      :       0.00u       0.00s       0.00w     18 calls
Form D      :       0.00u       0.00s       0.00w     18 calls
DIISManager::extrapolate:       0.00u       0.00s       0.00w     17 calls
DIISManager::extrapolate: bMatrix setup:       0.00u       0.00s       0.00w     17 calls
DIISManager::extrapolate: bMatrix pseudoinverse:       0.00u       0.00s       0.00w     17 calls
DIISManager::extrapolate: form new data:       0.00u       0.00s       0.00w     17 calls

***********************************************************

Host: Jeffs-MacBook-Pro.local

Timers On : Mon Mar 23 15:45:26 2015
Timers Off: Mon Mar 23 15:45:30 2015

Wall Time:        4.00 seconds

JK: (A|mn)  :       0.00u       0.00s       0.00w      1 call
JK: (A|Q)^-1/2:       0.03u       0.00s       0.00w      1 call
JK: (Q|mn)  :       0.00u       0.00s       0.00w      1 call
Form H      :       0.00u       0.00s       0.00w      1 call
Form S/X    :       0.00u       0.00s       0.00w      1 call
Guess       :       0.00u       0.00s       0.00w      1 call
Form G      :       0.00u       0.02s       0.00w     18 calls
JK: D       :       0.00u       0.00s       0.00w     18 calls
JK: USO2AO  :       0.00u       0.00s       0.00w     13 calls
JK: JK      :       0.00u       0.02s       0.00w     18 calls
JK: J       :       0.00u       0.00s       0.00w     13 calls
JK: J1      :       0.00u       0.00s       0.00w     13 calls
JK: J2      :       0.00u       0.00s       0.00w     13 calls
JK: K       :       0.00u       0.00s       0.00w     13 calls
JK: K1      :       0.00u       0.00s       0.00w     13 calls
JK: K2      :       0.00u       0.00s       0.00w     13 calls
JK: AO2USO  :       0.00u       0.00s       0.00w     13 calls
Form F      :       0.00u       0.00s       0.00w     18 calls
DIIS        :       0.00u       0.00s       0.00w     18 calls
DIISManager::add_entry:       0.00u       0.00s       0.00w     18 calls
Form C      :       0.00u       0.00s       0.00w     18 calls
Form D      :       0.00u       0.00s       0.00w     18 calls
DIISManager::extrapolate:       0.00u       0.00s       0.00w     17 calls
DIISManager::extrapolate: bMatrix setup:       0.00u       0.00s       0.00w     17 calls
DIISManager::extrapolate: bMatrix pseudoinverse:       0.00u       0.00s       0.00w     17 calls
DIISManager::extrapolate: form new data:       0.00u       0.00s       0.00w     17 calls

***********************************************************

Host: Jeffs-MacBook-Pro.local

Timers On : Mon Mar 23 15:58:02 2015
Timers Off: Mon Mar 23 15:58:06 2015

Wall Time:        4.00 seconds

JK: (A|mn)  :       0.02u       0.00s       0.00w      1 call
JK: (A|Q)^-1/2:       0.02u       0.00s       0.00w      1 call
JK: (Q|mn)  :       0.00u       0.00s       0.00w      1 call
Form H      :       0.00u       0.00s       0.00w      1 call
Form S/X    :       0.00u       0.00s       0.00w      1 call
Guess       :       0.00u       0.00s       0.00w      1 call
Form G      :       0.00u       0.00s       0.00w     18 calls
JK: D       :       0.00u       0.00s       0.00w     18 calls
JK: USO2AO  :       0.00u       0.00s       0.00w     13 calls
JK: JK      :       0.00u       0.00s       0.00w     18 calls
JK: J       :       0.00u       0.00s       0.00w     13 calls
JK: J1      :       0.00u       0.00s       0.00w     13 calls
JK: J2      :       0.00u       0.00s       0.00w     13 calls
JK: K       :       0.00u       0.00s       0.00w     13 calls
JK: K1      :       0.00u       0.00s       0.00w     13 calls
JK: K2      :       0.00u       0.00s       0.00w     13 calls
JK: AO2USO  :       0.00u       0.00s       0.00w     13 calls
Form F      :       0.00u       0.00s       0.00w     18 calls
DIIS        :       0.02u       0.00s       0.00w     18 calls
DIISManager::add_entry:       0.00u       0.00s       0.00w     18 calls
Form C      :       0.00u       0.00s       0.00w     18 calls
Form D      :       0.00u       0.00s       0.00w     18 calls
DIISManager::extrapolate:       0.00u       0.00s       0.00w     17 calls
DIISManager::extrapolate: bMatrix setup:       0.00u       0.00s       0.00w     17 calls
DIISManager::extrapolate: bMatrix pseudoinverse:       0.00u       0.00s       0.00w     17 calls
DIISManager::extrapolate: form new data:       0.00u       0.00s       0.00w     17 calls

***********************************************************

Host: Jeffs-MacBook-Pro.local

Timers On : Mon Mar 23 16:06:30 2015
Timers Off: Mon Mar 23 16:06:34 2015

Wall Time:        4.00 seconds

JK: (A|mn)  :       0.02u       0.00s       0.00w      2 calls
JK: (A|Q)^-1/2:       0.05u       0.00s       0.00w      2 calls
JK: (Q|mn)  :       0.00u       0.00s       0.00w      2 calls
Form H      :       0.00u       0.00s       0.00w      2 calls
Form S/X    :       0.00u       0.00s       0.00w      2 calls
Guess       :       0.00u       0.00s       0.00w      2 calls
Form G      :       0.02u       0.00s       0.00w     36 calls
JK: D       :       0.00u       0.00s       0.00w     36 calls
JK: USO2AO  :       0.00u       0.00s       0.00w     26 calls
JK: JK      :       0.02u       0.00s       0.00w     36 calls
JK: J       :       0.02u       0.00s       0.00w     26 calls
JK: J1      :       0.02u       0.00s       0.00w     26 calls
JK: J2      :       0.00u       0.00s       0.00w     26 calls
JK: K       :       0.00u       0.00s       0.00w     26 calls
JK: K1      :       0.00u       0.00s       0.00w     26 calls
JK: K2      :       0.00u       0.00s       0.00w     26 calls
JK: AO2USO  :       0.00u       0.00s       0.00w     26 calls
Form F      :       0.00u       0.00s       0.00w     36 calls
DIIS        :       0.00u       0.00s       0.00w     36 calls
DIISManager::add_entry:       0.00u       0.00s       0.00w     36 calls
Form C      :       0.00u       0.00s       0.00w     36 calls
Form D      :       0.00u       0.00s       0.00w     36 calls
DIISManager::extrapolate:       0.00u       0.00s       0.00w     34 calls
DIISManager::extrapolate: bMatrix setup:       0.00u       0.00s       0.00w     34 calls
DIISManager::extrapolate: bMatrix pseudoinverse:       0.00u       0.00s       0.00w     34 calls
DIISManager::extrapolate: form new data:       0.00u       0.00s       0.00w     34 calls
presort     :       0.00u       0.00s       0.00w      1 call
RHF:1sthalf :       0.00u       0.00s       0.00w      1 call
RHF:midsort :       0.00u       0.00s       0.00w      1 call
RHF:2ndhalf :       0.00u       0.00s       0.00w      1 call

***********************************************************

Host: Jeffs-MacBook-Pro.local

Timers On : Mon Mar 23 17:08:27 2015
Timers Off: Mon Mar 23 17:08:37 2015

Wall Time:       10.00 seconds

JK: (A|mn)  :       0.02u       0.00s       0.00w      2 calls
JK: (A|Q)^-1/2:       0.07u       0.00s       0.00w      2 calls
JK: (Q|mn)  :       0.00u       0.00s       0.00w      2 calls
Form H      :       0.00u       0.00s       0.00w      2 calls
Form S/X    :       0.02u       0.00s       0.00w      2 calls
Guess       :       0.00u       0.00s       0.00w      2 calls
Form G      :       0.02u       0.00s       0.00w     28 calls
JK: D       :       0.00u       0.00s       0.00w     28 calls
JK: USO2AO  :       0.00u       0.00s       0.00w     20 calls
JK: JK      :       0.02u       0.00s       0.00w     28 calls
JK: J       :       0.00u       0.00s       0.00w     20 calls
JK: J1      :       0.00u       0.00s       0.00w     20 calls
JK: J2      :       0.00u       0.00s       0.00w     20 calls
JK: K       :       0.00u       0.00s       0.00w     20 calls
JK: K1      :       0.00u       0.00s       0.00w     20 calls
JK: K2      :       0.00u       0.00s       0.00w     20 calls
JK: AO2USO  :       0.00u       0.00s       0.00w     20 calls
Form F      :       0.00u       0.00s       0.00w     28 calls
DIIS        :       0.00u       0.00s       0.00w     28 calls
DIISManager::add_entry:       0.00u       0.00s       0.00w     28 calls
Form C      :       0.00u       0.00s       0.00w     28 calls
Form D      :       0.00u       0.00s       0.00w     28 calls
DIISManager::extrapolate:       0.00u       0.00s       0.00w     26 calls
DIISManager::extrapolate: bMatrix setup:       0.00u       0.00s       0.00w     26 calls
DIISManager::extrapolate: bMatrix pseudoinverse:       0.00u       0.00s       0.00w     26 calls
DIISManager::extrapolate: form new data:       0.00u       0.00s       0.00w     26 calls
presort     :       0.00u       0.00s       0.00w      1 call
RHF:1sthalf :       0.00u       0.00s       0.00w      1 call
RHF:midsort :       0.00u       0.00s       0.00w      1 call
RHF:2ndhalf :       0.00u       0.00s       0.00w      1 call

***********************************************************

Host: Jeffs-MacBook-Pro.local

Timers On : Mon Mar 23 17:12:31 2015
Timers Off: Mon Mar 23 17:12:46 2015

Wall Time:       15.00 seconds

JK: (A|mn)  :       0.03u       0.00s       0.00w      2 calls
JK: (A|Q)^-1/2:       0.07u       0.00s       0.00w      2 calls
JK: (Q|mn)  :       0.00u       0.00s       0.00w      2 calls
Form H      :       0.00u       0.00s       0.00w      2 calls
Form S/X    :       0.00u       0.00s       0.00w      2 calls
Guess       :       0.00u       0.00s       0.00w      2 calls
Form G      :       0.02u       0.00s       0.00w     28 calls
JK: D       :       0.00u       0.00s       0.00w     28 calls
JK: USO2AO  :       0.00u       0.00s       0.00w     20 calls
JK: JK      :       0.02u       0.00s       0.00w     28 calls
JK: J       :       0.00u       0.00s       0.00w     20 calls
JK: J1      :       0.00u       0.00s       0.00w     20 calls
JK: J2      :       0.00u       0.00s       0.00w     20 calls
JK: K       :       0.02u       0.00s       0.00w     20 calls
JK: K1      :       0.00u       0.00s       0.00w     20 calls
JK: K2      :       0.02u       0.00s       0.00w     20 calls
JK: AO2USO  :       0.00u       0.00s       0.00w     20 calls
Form F      :       0.00u       0.00s       0.00w     28 calls
DIIS        :       0.00u       0.00s       0.00w     28 calls
DIISManager::add_entry:       0.00u       0.00s       0.00w     28 calls
Form C      :       0.00u       0.00s       0.00w     28 calls
Form D      :       0.00u       0.00s       0.00w     28 calls
DIISManager::extrapolate:       0.00u       0.00s       0.00w     26 calls
DIISManager::extrapolate: bMatrix setup:       0.00u       0.00s       0.00w     26 calls
DIISManager::extrapolate: bMatrix pseudoinverse:       0.00u       0.00s       0.00w     26 calls
DIISManager::extrapolate: form new data:       0.00u       0.00s       0.00w     26 calls
presort     :       0.00u       0.00s       0.00w      1 call
RHF:1sthalf :       0.00u       0.00s       0.00w      1 call
RHF:midsort :       0.00u       0.00s       0.00w      1 call
RHF:2ndhalf :       0.00u       0.00s       0.00w      1 call

***********************************************************
